# LAMMPS data file written by OVITO Basic 3.10.4

216 atoms
1 atom types

-3.56074511 7.12149022 xlo xhi
-3.56074511 7.12149022 ylo yhi
-3.56074511 7.12149022 zlo zhi

Atoms  # charge

1 1 0.0 -3.56074511 -3.56074511 -1.780372555
2 1 0.0 -2.6705588325 -2.6705588325 -0.8901862775
3 1 0.0 -3.56074511 -1.780372555 -3.56074511
4 1 0.0 -0.8901862775 -2.6705588325 -2.6705588325
5 1 0.0 -2.6705588325 -0.8901862775 -2.6705588325
6 1 0.0 -0.8901862775 -0.8901862775 -0.8901862775
7 1 0.0 -1.780372555 -3.56074511 -3.56074511
8 1 0.0 -1.780372555 -1.780372555 -1.780372555
9 1 0.0 -3.56074511 -3.56074511 1.780372555
10 1 0.0 -2.6705588325 -2.6705588325 2.6705588325
11 1 0.0 -3.56074511 -1.780372555 0.0
12 1 0.0 -0.8901862775 -2.6705588325 0.8901862775
13 1 0.0 -2.6705588325 -0.8901862775 0.8901862775
14 1 0.0 -0.8901862775 -0.8901862775 2.6705588325
15 1 0.0 -1.780372555 -3.56074511 0.0
16 1 0.0 -1.780372555 -1.780372555 1.780372555
17 1 0.0 -3.56074511 -3.56074511 5.341117665
18 1 0.0 -2.6705588325 -2.6705588325 6.2313039425
19 1 0.0 -3.56074511 -1.780372555 3.56074511
20 1 0.0 -0.8901862775 -2.6705588325 4.4509313875
21 1 0.0 -2.6705588325 -0.8901862775 4.4509313875
22 1 0.0 -0.8901862775 -0.8901862775 6.2313039425
23 1 0.0 -1.780372555 -3.56074511 3.56074511
24 1 0.0 -1.780372555 -1.780372555 5.341117665
25 1 0.0 -3.56074511 0.0 -1.780372555
26 1 0.0 -2.6705588325 0.8901862775 -0.8901862775
27 1 0.0 -3.56074511 1.780372555 -3.56074511
28 1 0.0 -0.8901862775 0.8901862775 -2.6705588325
29 1 0.0 -2.6705588325 2.6705588325 -2.6705588325
30 1 0.0 -0.8901862775 2.6705588325 -0.8901862775
31 1 0.0 -1.780372555 0.0 -3.56074511
32 1 0.0 -1.780372555 1.780372555 -1.780372555
33 1 0.0 -3.56074511 0.0 1.780372555
34 1 0.0 -2.6705588325 0.8901862775 2.6705588325
35 1 0.0 -3.56074511 1.780372555 0.0
36 1 0.0 -0.8901862775 0.8901862775 0.8901862775
37 1 0.0 -2.6705588325 2.6705588325 0.8901862775
38 1 0.0 -0.8901862775 2.6705588325 2.6705588325
39 1 0.0 -1.780372555 0.0 0.0
40 1 0.0 -1.780372555 1.780372555 1.780372555
41 1 0.0 -3.56074511 0.0 5.341117665
42 1 0.0 -2.6705588325 0.8901862775 6.2313039425
43 1 0.0 -3.56074511 1.780372555 3.56074511
44 1 0.0 -0.8901862775 0.8901862775 4.4509313875
45 1 0.0 -2.6705588325 2.6705588325 4.4509313875
46 1 0.0 -0.8901862775 2.6705588325 6.2313039425
47 1 0.0 -1.780372555 0.0 3.56074511
48 1 0.0 -1.780372555 1.780372555 5.341117665
49 1 0.0 -3.56074511 3.56074511 -1.780372555
50 1 0.0 -2.6705588325 4.4509313875 -0.8901862775
51 1 0.0 -3.56074511 5.341117665 -3.56074511
52 1 0.0 -0.8901862775 4.4509313875 -2.6705588325
53 1 0.0 -2.6705588325 6.2313039425 -2.6705588325
54 1 0.0 -0.8901862775 6.2313039425 -0.8901862775
55 1 0.0 -1.780372555 3.56074511 -3.56074511
56 1 0.0 -1.780372555 5.341117665 -1.780372555
57 1 0.0 -3.56074511 3.56074511 1.780372555
58 1 0.0 -2.6705588325 4.4509313875 2.6705588325
59 1 0.0 -3.56074511 5.341117665 0.0
60 1 0.0 -0.8901862775 4.4509313875 0.8901862775
61 1 0.0 -2.6705588325 6.2313039425 0.8901862775
62 1 0.0 -0.8901862775 6.2313039425 2.6705588325
63 1 0.0 -1.780372555 3.56074511 0.0
64 1 0.0 -1.780372555 5.341117665 1.780372555
65 1 0.0 -3.56074511 3.56074511 5.341117665
66 1 0.0 -2.6705588325 4.4509313875 6.2313039425
67 1 0.0 -3.56074511 5.341117665 3.56074511
68 1 0.0 -0.8901862775 4.4509313875 4.4509313875
69 1 0.0 -2.6705588325 6.2313039425 4.4509313875
70 1 0.0 -0.8901862775 6.2313039425 6.2313039425
71 1 0.0 -1.780372555 3.56074511 3.56074511
72 1 0.0 -1.780372555 5.341117665 5.341117665
73 1 0.0 0.0 -3.56074511 -1.780372555
74 1 0.0 0.8901862775 -2.6705588325 -0.8901862775
75 1 0.0 0.0 -1.780372555 -3.56074511
76 1 0.0 2.6705588325 -2.6705588325 -2.6705588325
77 1 0.0 0.8901862775 -0.8901862775 -2.6705588325
78 1 0.0 2.6705588325 -0.8901862775 -0.8901862775
79 1 0.0 1.780372555 -3.56074511 -3.56074511
80 1 0.0 1.780372555 -1.780372555 -1.780372555
81 1 0.0 0.0 -3.56074511 1.780372555
82 1 0.0 0.8901862775 -2.6705588325 2.6705588325
83 1 0.0 0.0 -1.780372555 0.0
84 1 0.0 2.6705588325 -2.6705588325 0.8901862775
85 1 0.0 0.8901862775 -0.8901862775 0.8901862775
86 1 0.0 2.6705588325 -0.8901862775 2.6705588325
87 1 0.0 1.780372555 -3.56074511 0.0
88 1 0.0 1.780372555 -1.780372555 1.780372555
89 1 0.0 0.0 -3.56074511 5.341117665
90 1 0.0 0.8901862775 -2.6705588325 6.2313039425
91 1 0.0 0.0 -1.780372555 3.56074511
92 1 0.0 2.6705588325 -2.6705588325 4.4509313875
93 1 0.0 0.8901862775 -0.8901862775 4.4509313875
94 1 0.0 2.6705588325 -0.8901862775 6.2313039425
95 1 0.0 1.780372555 -3.56074511 3.56074511
96 1 0.0 1.780372555 -1.780372555 5.341117665
97 1 0.0 0.0 0.0 -1.780372555
98 1 0.0 0.8901862775 0.8901862775 -0.8901862775
99 1 0.0 0.0 1.780372555 -3.56074511
100 1 0.0 2.6705588325 0.8901862775 -2.6705588325
101 1 0.0 0.8901862775 2.6705588325 -2.6705588325
102 1 0.0 2.6705588325 2.6705588325 -0.8901862775
103 1 0.0 1.780372555 0.0 -3.56074511
104 1 0.0 1.780372555 1.780372555 -1.780372555
105 1 0.0 0.0 0.0 1.780372555
106 1 0.0 0.8901862775 0.8901862775 2.6705588325
107 1 0.0 0.0 1.780372555 0.0
108 1 0.0 2.6705588325 0.8901862775 0.8901862775
109 1 0.0 0.8901862775 2.6705588325 0.8901862775
110 1 0.0 2.6705588325 2.6705588325 2.6705588325
111 1 0.0 1.780372555 0.0 0.0
112 1 0.0 1.780372555 1.780372555 1.780372555
113 1 0.0 0.0 0.0 5.341117665
114 1 0.0 0.8901862775 0.8901862775 6.2313039425
115 1 0.0 0.0 1.780372555 3.56074511
116 1 0.0 2.6705588325 0.8901862775 4.4509313875
117 1 0.0 0.8901862775 2.6705588325 4.4509313875
118 1 0.0 2.6705588325 2.6705588325 6.2313039425
119 1 0.0 1.780372555 0.0 3.56074511
120 1 0.0 1.780372555 1.780372555 5.341117665
121 1 0.0 0.0 3.56074511 -1.780372555
122 1 0.0 0.8901862775 4.4509313875 -0.8901862775
123 1 0.0 0.0 5.341117665 -3.56074511
124 1 0.0 2.6705588325 4.4509313875 -2.6705588325
125 1 0.0 0.8901862775 6.2313039425 -2.6705588325
126 1 0.0 2.6705588325 6.2313039425 -0.8901862775
127 1 0.0 1.780372555 3.56074511 -3.56074511
128 1 0.0 1.780372555 5.341117665 -1.780372555
129 1 0.0 0.0 3.56074511 1.780372555
130 1 0.0 0.8901862775 4.4509313875 2.6705588325
131 1 0.0 0.0 5.341117665 0.0
132 1 0.0 2.6705588325 4.4509313875 0.8901862775
133 1 0.0 0.8901862775 6.2313039425 0.8901862775
134 1 0.0 2.6705588325 6.2313039425 2.6705588325
135 1 0.0 1.780372555 3.56074511 0.0
136 1 0.0 1.780372555 5.341117665 1.780372555
137 1 0.0 0.0 3.56074511 5.341117665
138 1 0.0 0.8901862775 4.4509313875 6.2313039425
139 1 0.0 0.0 5.341117665 3.56074511
140 1 0.0 2.6705588325 4.4509313875 4.4509313875
141 1 0.0 0.8901862775 6.2313039425 4.4509313875
142 1 0.0 2.6705588325 6.2313039425 6.2313039425
143 1 0.0 1.780372555 3.56074511 3.56074511
144 1 0.0 1.780372555 5.341117665 5.341117665
145 1 0.0 3.56074511 -3.56074511 -1.780372555
146 1 0.0 4.4509313875 -2.6705588325 -0.8901862775
147 1 0.0 3.56074511 -1.780372555 -3.56074511
148 1 0.0 6.2313039425 -2.6705588325 -2.6705588325
149 1 0.0 4.4509313875 -0.8901862775 -2.6705588325
150 1 0.0 6.2313039425 -0.8901862775 -0.8901862775
151 1 0.0 5.341117665 -3.56074511 -3.56074511
152 1 0.0 5.341117665 -1.780372555 -1.780372555
153 1 0.0 3.56074511 -3.56074511 1.780372555
154 1 0.0 4.4509313875 -2.6705588325 2.6705588325
155 1 0.0 3.56074511 -1.780372555 0.0
156 1 0.0 6.2313039425 -2.6705588325 0.8901862775
157 1 0.0 4.4509313875 -0.8901862775 0.8901862775
158 1 0.0 6.2313039425 -0.8901862775 2.6705588325
159 1 0.0 5.341117665 -3.56074511 0.0
160 1 0.0 5.341117665 -1.780372555 1.780372555
161 1 0.0 3.56074511 -3.56074511 5.341117665
162 1 0.0 4.4509313875 -2.6705588325 6.2313039425
163 1 0.0 3.56074511 -1.780372555 3.56074511
164 1 0.0 6.2313039425 -2.6705588325 4.4509313875
165 1 0.0 4.4509313875 -0.8901862775 4.4509313875
166 1 0.0 6.2313039425 -0.8901862775 6.2313039425
167 1 0.0 5.341117665 -3.56074511 3.56074511
168 1 0.0 5.341117665 -1.780372555 5.341117665
169 1 0.0 3.56074511 0.0 -1.780372555
170 1 0.0 4.4509313875 0.8901862775 -0.8901862775
171 1 0.0 3.56074511 1.780372555 -3.56074511
172 1 0.0 6.2313039425 0.8901862775 -2.6705588325
173 1 0.0 4.4509313875 2.6705588325 -2.6705588325
174 1 0.0 6.2313039425 2.6705588325 -0.8901862775
175 1 0.0 5.341117665 0.0 -3.56074511
176 1 0.0 5.341117665 1.780372555 -1.780372555
177 1 0.0 3.56074511 0.0 1.780372555
178 1 0.0 4.4509313875 0.8901862775 2.6705588325
179 1 0.0 3.56074511 1.780372555 0.0
180 1 0.0 6.2313039425 0.8901862775 0.8901862775
181 1 0.0 4.4509313875 2.6705588325 0.8901862775
182 1 0.0 6.2313039425 2.6705588325 2.6705588325
183 1 0.0 5.341117665 0.0 0.0
184 1 0.0 5.341117665 1.780372555 1.780372555
185 1 0.0 3.56074511 0.0 5.341117665
186 1 0.0 4.4509313875 0.8901862775 6.2313039425
187 1 0.0 3.56074511 1.780372555 3.56074511
188 1 0.0 6.2313039425 0.8901862775 4.4509313875
189 1 0.0 4.4509313875 2.6705588325 4.4509313875
190 1 0.0 6.2313039425 2.6705588325 6.2313039425
191 1 0.0 5.341117665 0.0 3.56074511
192 1 0.0 5.341117665 1.780372555 5.341117665
193 1 0.0 3.56074511 3.56074511 -1.780372555
194 1 0.0 4.4509313875 4.4509313875 -0.8901862775
195 1 0.0 3.56074511 5.341117665 -3.56074511
196 1 0.0 6.2313039425 4.4509313875 -2.6705588325
197 1 0.0 4.4509313875 6.2313039425 -2.6705588325
198 1 0.0 6.2313039425 6.2313039425 -0.8901862775
199 1 0.0 5.341117665 3.56074511 -3.56074511
200 1 0.0 5.341117665 5.341117665 -1.780372555
201 1 0.0 3.56074511 3.56074511 1.780372555
202 1 0.0 4.4509313875 4.4509313875 2.6705588325
203 1 0.0 3.56074511 5.341117665 0.0
204 1 0.0 6.2313039425 4.4509313875 0.8901862775
205 1 0.0 4.4509313875 6.2313039425 0.8901862775
206 1 0.0 6.2313039425 6.2313039425 2.6705588325
207 1 0.0 5.341117665 3.56074511 0.0
208 1 0.0 5.341117665 5.341117665 1.780372555
209 1 0.0 3.56074511 3.56074511 5.341117665
210 1 0.0 4.4509313875 4.4509313875 6.2313039425
211 1 0.0 3.56074511 5.341117665 3.56074511
212 1 0.0 6.2313039425 4.4509313875 4.4509313875
213 1 0.0 4.4509313875 6.2313039425 4.4509313875
214 1 0.0 6.2313039425 6.2313039425 6.2313039425
215 1 0.0 5.341117665 3.56074511 3.56074511
216 1 0.0 5.341117665 5.341117665 5.341117665
