LAMMPS data file via write_data, version 15 Jun 2023, timestep = 6270, units = metal

216 atoms
1 atom types

-4.479751544565269 8.04049665456777 xlo xhi
-4.47975154456527 8.040496654565239 ylo yhi
-4.479751544565273 8.040496654567772 zlo zhi

Masses

1 12.011

Atoms # charge

183 1 0 -0.6228768622338143 -2.786709820956951 -3.8113687002279493 1 0 0
89 1 0 -0.653530811117844 -4.027372782364358 -3.383723255524437 0 0 1
78 1 0 4.629021511819103 -2.4460153182112157 -4.326438343478818 0 0 0
144 1 0 7.832329721822961 -3.463846242114973 -2.317026108065209 -1 1 1
169 1 0 5.866602229317851 -2.2634307953997848 -4.053065368137182 0 0 0
44 1 0 -2.540290289102803 -0.07399388940371576 8.005806277580763 0 0 0
22 1 0 -0.9597456547434895 -1.4415996247572473 -3.704617378567904 0 0 1
10 1 0 -0.40470444055706345 -0.4618912424640129 8.018336500304143 0 0 0
142 1 0 1.4102575448027022 -1.9560269633562344 -2.7555455340386796 0 1 1
75 1 0 2.440604000981234 -1.4803702180624834 -3.161694112775865 0 0 0
96 1 0 3.4370884221535194 -0.39524953286040443 -3.159644697157338 0 0 1
215 1 0 4.2810094014368465 -0.25919239573198727 -4.159574063351704 0 0 1
160 1 0 7.1695887768336055 -1.7734649363339554 -4.360267706531477 0 0 0
176 1 0 -4.230232121095183 2.1003599940750783 -3.224938268473439 1 0 0
45 1 0 -1.916173449415393 0.9170930807896784 -3.77148021848212 0 0 1
27 1 0 -1.7641654956447335 1.9437227721790107 -2.998968799808882 0 0 0
178 1 0 0.010466395972266618 0.7584298175062019 7.862140544468303 0 0 0
185 1 0 7.708292196136891 1.1677181507036574 -2.5506562877684513 0 0 0
170 1 0 -3.8823475683349487 2.947964470116098 -4.0321878121228325 1 0 0
31 1 0 -1.9845420425168787 3.153028803574254 -2.5241160913903644 0 0 0
109 1 0 0.318416461559325 1.9411031380401722 -2.8261615251938386 0 0 0
113 1 0 0.3848523907968193 1.979195987207997 -4.169582290986823 0 0 1
193 1 0 3.3650492058953247 3.4338015520179797 -2.693278656679344 0 0 0
127 1 0 4.246819977653492 2.1921779321288355 8.013405052485993 0 0 -1
42 1 0 4.935065837012316 1.830341423739143 -3.4521883219939618 -1 0 1
59 1 0 -2.943030434805035 5.774379920779182 -3.6418310570352697 0 0 0
60 1 0 -0.06684536632701032 5.045825628543801 -2.60243842403999 0 0 0
73 1 0 0.3635931837396944 4.149499720043266 -3.565201342285512 0 -1 0
104 1 0 3.4653608972489387 4.34411257923569 -3.5715930308468895 0 0 0
198 1 0 5.422208290388032 5.125677375647198 -3.0759510735606206 0 0 0
208 1 0 7.32608809362553 4.289278592926163 -2.6369091720496542 0 0 0
49 1 0 6.270572861544159 4.1586226779579984 -3.535027836665418 -1 0 0
70 1 0 -1.2164937390402812 7.421146686056293 -2.6508665696202383 0 0 1
72 1 0 -0.6644200551136246 6.208269871573172 -2.241273510527332 0 0 1
171 1 0 3.3178085194132514 7.622766041206589 -3.8042225153028038 0 0 0
122 1 0 3.895811458355781 6.91398855040844 -2.8284423930150715 0 0 0
201 1 0 4.738277026077017 5.953427972003906 -2.2600686729635924 0 0 0
159 1 0 7.007824518376107 6.724877085769997 -3.6259626859792706 0 -1 0
206 1 0 7.160679512046763 6.801832546885615 -2.3579315772658664 0 0 0
84 1 0 -3.630109260366811 -4.183740282628591 -2.4838728171619504 0 0 0
4 1 0 -1.2594475951734583 -3.6603793441208876 -0.7149267207621781 0 0 0
126 1 0 -0.25151609015549514 -3.109255213404857 -1.2071463782727552 0 1 0
111 1 0 0.493025112895662 -2.393828541347672 -1.9491852423777978 0 0 0
128 1 0 2.022168797875942 -4.316140081550077 -0.2996826845595386 0 1 0
194 1 0 3.0211737543464183 -4.097292446190284 -1.1333269889273945 0 1 0
205 1 0 4.10952129284265 -3.649179980646504 -1.6468241588113908 0 1 0
152 1 0 5.413375965121461 -3.720037462148112 -1.9327510051421957 0 0 0
80 1 0 6.605987591711133 -3.351535849277366 -2.332411210140471 0 0 0
6 1 0 -2.872985280086699 -1.539484579948736 -0.35928199716401377 0 0 0
39 1 0 -1.6462864064044607 -1.0435210461222488 -2.5369340785175885 0 0 0
8 1 0 -2.350977277049462 -1.3810503650767276 -1.4717252844506166 0 0 0
203 1 0 2.0080038604142096 -0.7560687597214311 -0.3205403979003387 0 1 0
32 1 0 6.810198470463125 -2.1775435452791663 -0.5057373518942039 -1 0 0
79 1 0 7.112504643592717 -1.2110531971857532 -1.4500832446687695 0 0 0
55 1 0 -1.1791751246405853 1.507480106234425 -0.8879795625514912 0 0 0
108 1 0 -0.14373385461959565 1.6935641433861006 -1.6736113416651381 0 0 0
192 1 0 3.289310343329876 0.3299097728855118 -1.8919641734237298 0 0 1
98 1 0 2.7316934808731075 0.39740069969613856 -0.6845511333607566 0 0 0
146 1 0 7.457993911653657 0.03152952996510283 -1.86308281626737 0 0 0
28 1 0 -2.8836674120157886 4.016682498248185 -2.227222999514028 0 0 0
26 1 0 -4.016524016612192 4.428048351882879 -2.1657470775760097 0 0 0
179 1 0 0.7647734136754805 3.2942676646233284 -0.24383410997284294 0 0 0
102 1 0 1.738516047065164 2.833247011955571 -0.9277760971023228 0 0 0
118 1 0 2.645028284820894 2.86035122483782 -1.8341364841473227 0 0 1
162 1 0 5.599483567954306 1.9731049526412914 -2.3546242650579496 0 0 1
196 1 0 6.214557187261394 2.638929818207865 -1.260304121503332 0 0 0
87 1 0 7.59121694677552 2.6736960350439505 -0.9267990652706333 0 -1 0
61 1 0 -3.4996129639978824 6.316596279661335 -0.6678268875019717 0 0 0
2 1 0 -2.519202214034534 7.78759667023057 -2.260809196003766 0 -1 0
136 1 0 4.833214219740474 5.937001466007745 -0.9214365369466466 0 0 0
67 1 0 7.76957685798129 6.912787833337617 -1.1197976949397739 -1 0 0
132 1 0 7.284200242881298 8.010099543099708 -0.5495906564806305 0 0 0
3 1 0 -3.2442206376596676 -3.610012899042999 0.9735194085238046 0 0 0
12 1 0 -2.329461220027983 -3.8504716523532454 0.029185659886920234 0 0 0
124 1 0 1.1481116076586533 -4.169682241609566 0.6136950655229843 0 1 0
64 1 0 0.4070758886620931 -3.4411729240682307 1.528664254030307 0 1 0
54 1 0 4.03734663665661 -3.743890345179987 1.1330822672384881 0 1 0
153 1 0 6.741095610689023 -3.4242073591366986 0.07235551706434507 0 0 0
212 1 0 6.215720932444506 -3.7543566411646836 1.4060019523708975 0 1 0
107 1 0 -3.8637588885697216 -1.4427340596683558 0.5124541421434703 0 0 0
53 1 0 1.2105902874167347 -1.5469173179110367 0.33769838180971856 0 1 0
97 1 0 0.33188174447584284 -2.030248090542668 1.347765760697917 0 0 0
186 1 0 7.6882372388403395 -1.368966526082981 1.367980925387064 0 0 1
38 1 0 -3.3443613981612823 0.7516000134789067 0.1566534391407819 0 0 0
40 1 0 -2.1109366886481316 0.9141401727286826 -0.2286703911147976 0 0 0
99 1 0 3.0894267980447054 1.2883885542240776 0.2830920357879805 0 0 0
100 1 0 3.1987369598835 1.7995311972915342 1.4802899456001386 0 0 0
157 1 0 5.6326609906125755 1.7054043898317488 1.3164998420500211 0 0 0
180 1 0 -4.439441160489405 0.9114528650980382 0.7973374417491765 1 0 0
207 1 0 6.894171466926372 1.3590155382472373 1.1273930040917541 0 0 0
14 1 0 -3.7670639942181996 2.749663457675667 -0.38926767234405535 0 0 0
47 1 0 -3.0020688573268357 3.273409211210093 0.6530763062742357 0 0 0
15 1 0 -1.7103821364381697 2.8446463568467832 0.8591724091012196 0 -1 0
71 1 0 -0.5313356018544662 2.4962365309460237 1.4423371784954533 0 0 0
204 1 0 4.005358004190437 3.7139281839159377 -0.319679281990747 0 0 0
68 1 0 5.109590921004545 3.1456080807342195 -0.5420609013207902 -1 0 0
37 1 0 -1.8176266841574225 5.45078423076143 1.0844240189324141 0 0 0
143 1 0 -0.3929548279563253 5.045635783199012 1.2254150149188003 0 0 0
181 1 0 -0.02328855504329219 4.192735476349096 0.26928018410063714 0 0 0
30 1 0 3.2067957679753505 4.523998757757749 0.2345613355367684 0 0 0
110 1 0 2.686472555262844 5.586583623199573 0.8796166264032212 0 0 0
23 1 0 5.117516553156764 5.495104331619347 1.4269936625627135 0 -1 0
133 1 0 6.3834317133130645 5.185312845597485 1.6273440224812878 0 0 0
1 1 0 -2.449590787886261 6.190310932158457 0.17277062128331888 0 -1 0
36 1 0 2.7946350698738183 6.534577927982822 1.686965630695357 0 -1 0
155 1 0 4.265076430154502 7.610928500033738 0.5521806797506947 0 -1 0
81 1 0 4.745814031123207 6.393777732224496 0.34676672832933697 0 -1 0
9 1 0 -3.969141512301599 -3.692138895007636 2.0195934825818487 0 0 0
158 1 0 -4.348891936554739 -3.226206400400574 3.143794235278489 1 0 0
11 1 0 -0.5198387315648523 -3.946765278840891 2.5207886020363723 0 0 0
69 1 0 -1.620443659825178 -4.322217994387464 3.0068515119473043 0 1 0
149 1 0 3.3031898425730857 -2.93432583434911 1.8807813605514516 0 0 0
125 1 0 2.5031134521517737 -3.680386058175445 3.916533665611544 0 1 0
43 1 0 -2.043290907014837 -0.3250338525688061 3.6524591807611344 0 0 0
13 1 0 -0.4399361053300028 -1.3070766427295668 2.210380165932178 0 0 0
94 1 0 -1.0321294763095459 -1.2087251829742436 3.413097230774077 0 0 0
88 1 0 2.405544374097955 -2.658384655424201 2.913830618005118 0 0 0
86 1 0 1.6644809825747222 -1.4424363228007264 3.0965290385039443 0 0 0
174 1 0 4.610960619915697 -0.5498556691045753 2.367899043913151 0 0 0
33 1 0 6.178143982439393 -2.158227931963433 3.270203348844321 -1 0 0
156 1 0 6.745503167914982 -1.722138206217565 2.2186860813677978 0 0 0
147 1 0 0.951238943874305 -0.4169027910242207 3.5342621042616624 0 0 -1
112 1 0 0.3438313020676409 0.34489968464475584 4.352172438813186 0 0 0
177 1 0 3.764170352811683 -0.5782376947673491 3.383830317549183 0 0 0
90 1 0 4.524887682422116 1.9878530498933138 2.061589771370018 0 0 0
187 1 0 7.27837413103519 0.6397244556449104 3.322651894795288 0 0 0
137 1 0 -4.1692610971653625 2.793783626965464 3.3270024786812726 0 0 0
74 1 0 0.7933848785053748 2.491969779599496 1.7153288184454958 0 0 0
105 1 0 1.985286822060619 2.0859047705263905 2.271229401532616 0 0 0
91 1 0 2.1596221404433704 1.7059560592007408 3.5742414581959867 0 0 0
182 1 0 4.621194352458393 2.410382684518434 3.3494699989520935 0 0 0
58 1 0 -4.476518160039399 1.5985116182254808 3.1007223593181257 0 0 0
139 1 0 -3.6837448458074284 4.218667732418098 1.5434044827978672 0 0 0
21 1 0 -2.43138110151027 4.574827076627679 2.302998503937763 0 -1 0
209 1 0 -1.923160220806753 4.0694104699159634 3.447897503180564 0 0 0
129 1 0 0.2752319093307545 5.6194106344852095 2.3130403361195766 0 0 0
140 1 0 0.889756616961149 5.474345909720332 3.5605827376867225 0 0 0
35 1 0 3.3540493890606635 4.872245870118904 3.2531871227101794 -1 0 0
202 1 0 2.133045195387476 5.058343162370221 3.7004731728378957 0 0 0
189 1 0 4.252667058727789 4.915445544721159 2.3521529447209995 0 0 0
130 1 0 7.513934525686699 4.569825085668581 1.5457365512244712 -1 0 0
57 1 0 3.25100472885223 7.152070087860563 2.7920221159988605 0 0 0
167 1 0 4.652274699654217 7.434963120504033 2.768857916406895 0 -1 0
134 1 0 5.904957123468111 7.929205185579365 2.362563605319081 0 0 0
65 1 0 6.965898212921625 7.330853678878601 2.8748902244824697 -1 0 0
214 1 0 7.688863318851287 6.448011369452017 3.47128670735123 0 0 0
165 1 0 -4.246336749898878 -2.684820760273684 4.366266706872922 1 0 0
25 1 0 -0.3890576007566251 -3.0307895560161873 5.466403582892145 0 0 -1
83 1 0 4.8260346003418695 -3.8038057791749615 4.65045947077404 0 0 0
188 1 0 5.384973135031928 -2.855711965228914 3.9687171604257436 0 0 0
5 1 0 -3.694898146609866 -2.1811817143166277 5.36535506599982 0 0 -1
16 1 0 -0.3951252658256408 -2.0478787325889627 4.316863139971771 0 0 0
163 1 0 3.078682832980032 -1.0244119333182091 5.744137175632513 0 0 0
106 1 0 -2.8856598634609965 0.37724362857222626 4.313864587968135 0 0 0
93 1 0 -3.349693399397085 1.2748157914519362 5.281489432039455 0 0 0
24 1 0 -0.35521385144064155 1.475274996030186 4.619878854151793 0 0 0
191 1 0 3.1822719564679316 -0.2288543244254333 4.605191362622323 0 0 0
119 1 0 2.707211292340025 1.1363105455053244 4.687216998587415 0 0 0
199 1 0 5.74145916581723 -0.4845962233054286 5.0273195482445665 0 0 -1
34 1 0 6.428114018095216 -0.0264396188788103 4.010434368582924 -1 0 0
135 1 0 -2.881155607599768 2.6405828370189486 5.216316435096225 0 0 0
56 1 0 -0.7686673015719503 2.744616528458252 5.187997731013731 0 0 -1
115 1 0 -1.1264619304746795 3.5737300061270822 4.238320869149801 0 0 0
63 1 0 4.722011843616058 2.502168458801192 4.602021600959233 -1 0 0
66 1 0 5.198639831195998 3.0170050194095897 5.6896241189914285 -1 0 0
141 1 0 -4.235739537318529 3.970278596783288 3.765444642051243 0 0 0
17 1 0 -4.356329797282028 5.272000240511192 3.7938698222865117 0 -1 0
62 1 0 -1.0126475699965063 6.160584002327594 5.296495917786443 0 0 0
168 1 0 -2.1421742642707073 6.141973386478547 5.818411518925791 1 -1 0
95 1 0 0.018391377298399014 5.730465521039191 4.629823012348833 0 -1 0
210 1 0 2.575741947005854 5.503982637554872 5.703137783948057 0 0 0
19 1 0 -3.3849404831490073 7.825178976968569 4.841061742908465 0 -1 0
20 1 0 7.990351590885424 7.598185630667926 5.521847419072518 -1 -1 0
82 1 0 -2.5270827586535773 7.781724746938238 3.802660188292567 0 -1 0
76 1 0 2.880236034160597 7.529362634244091 4.115919555836401 0 -1 -1
161 1 0 2.756312358754988 6.94948643474806 5.391476305345307 0 -1 0
164 1 0 4.838148698010131 7.54122507466626 5.180497156275798 0 -1 0
154 1 0 4.925690565508261 6.559228571076206 6.019699915726816 0 -1 0
166 1 0 -4.282182299502193 -2.7006141688195306 -4.3768141427464755 1 0 1
18 1 0 -3.700930481716095 -3.7206610657775494 7.707328090762076 0 0 0
216 1 0 -1.5795806768935208 -2.8238026978693536 6.1837420713179405 0 1 0
85 1 0 0.6647263117994768 -3.9255893417415693 5.7479606109108605 0 0 0
114 1 0 3.6002484197539095 -2.8393225304616867 7.5002253943340005 0 0 0
195 1 0 3.177805779707221 -4.155089449919957 7.479778670484331 0 1 -1
172 1 0 6.326277030748346 -3.5882962437327275 6.513716902252645 0 0 -1
148 1 0 -2.8207036417689735 -1.1477112614928608 7.2024401389467645 1 0 -1
150 1 0 -2.6851122314903266 -2.085846785969756 6.279531269206567 1 0 -1
103 1 0 3.0895312276959075 -1.9743808849144173 6.68011607315076 0 0 -1
92 1 0 5.907543769235191 -2.441913164605406 6.24957742618753 0 0 0
173 1 0 5.5004047003501855 -1.1231272661414118 6.19775105871406 0 0 -1
175 1 0 4.936796041857199 -0.46342905198731543 7.287584180322218 0 0 -1
77 1 0 7.19830706035544 -0.4463954369432228 7.922011274216476 0 0 -1
41 1 0 -4.325431465459003 0.9193592633977623 6.2820291364843115 0 0 0
29 1 0 7.290438275749126 0.7743888138473682 7.291647032995151 -1 0 -1
197 1 0 6.609405612924296 1.904979689112002 7.695673453627755 0 0 -1
117 1 0 -0.6347903552668903 3.073388464649425 6.544866046933368 0 0 0
190 1 0 0.44375707262430275 3.299318989719083 7.60896772156093 0 0 0
101 1 0 1.582397867420732 3.6549082757408193 6.844123990939021 0 0 -1
184 1 0 2.851555832306567 1.732322659513918 5.90104693277385 0 0 0
50 1 0 3.41581645062932 2.063229079149118 7.00711669669807 -1 0 -1
46 1 0 5.57599060196421 4.02684864750716 6.593518029504656 -1 0 0
121 1 0 6.2522682652002475 3.3300445894159427 7.749021774534823 -1 0 -1
48 1 0 -3.8665128391467114 3.778054115125327 7.4753267424653185 0 0 0
51 1 0 -3.5618372454821388 4.975964586094099 6.974657807973964 0 0 -1
52 1 0 2.53048552408987 4.577288288426667 6.593088130256705 0 0 -1
120 1 0 2.8605725921891265 5.018015724692107 7.975377012927172 0 0 0
200 1 0 5.32934764381826 5.3884049810534 6.512898677431595 0 0 -1
138 1 0 -3.4009725087750104 7.485057017256704 7.377292939266761 0 0 0
211 1 0 -3.1022258940081615 6.344228924978324 6.849030010135612 0 0 0
131 1 0 -1.7083177789518578 5.816302825564382 -4.206771030483062 0 0 0
7 1 0 -0.6590057670025593 6.3435927345643535 7.781365551696197 0 -1 -1
116 1 0 0.6678464508905817 6.422058932282059 7.733366902011884 0 0 0
123 1 0 1.856179112674993 6.090864897064716 7.9897738453861615 0 0 -1
213 1 0 2.66587214874849 7.786696746353961 6.407262256339999 0 0 0
151 1 0 7.103813535097447 7.7528053273843724 6.5335652571001095 0 -1 -1
145 1 0 7.070647993944294 7.042266600082122 7.635712210256065 0 -1 -1

Velocities

183 7.908754246706636 5.984224459344483 -13.25542910673812
89 13.73594155745745 -0.8485116315005115 -3.142689971560045
78 -5.536499752729548 8.250328558420781 -15.454687747975568
144 14.640796506200356 -8.923469464111026 9.368839145787957
169 8.308313714221226 19.67191119633848 0.7084040265091847
44 6.933227103089914 6.834930192501607 -3.5202593589680538
22 3.5302135319905883 10.007483669807 5.020176230065952
10 0.5866515984301142 9.449868086492254 -0.1759911527840558
142 -7.936000535036429 -11.682394700145919 8.21477051764229
75 -1.316944310104544 -5.552689643276959 -37.122766769681476
96 14.71427103053409 -1.5901870670881706 -2.9895373422637785
215 0.02975466561528109 -25.252076683199007 3.5449639745167723
160 -0.3704421411008359 24.26462181299835 -13.226744843800732
176 -17.413975478183918 5.363146886862858 -4.994519462597408
45 -22.583828621744175 -3.148510670753069 14.945096734215825
27 3.177345173964427 -2.540771400825354 1.1506784070262863
178 19.663082021623502 -14.838843460445775 -7.898041140758659
185 -3.742457073993278 -1.068028018776033 2.9087876164208453
170 -7.528086287820107 26.29503647569843 -7.424207328095289
31 20.58613231305049 0.07848405598515384 14.42327310468616
109 6.71918321265023 4.827467863957766 1.1206353444135078
113 20.322836622348017 -2.184140580603014 2.8266162241945336
193 11.99225821577631 -2.088065100742847 10.967402307168873
127 -3.0644442410759183 -0.00039050625837206413 -5.694579254272601
42 -8.294580632909184 6.958969463868284 -1.423173566096346
59 10.119907326004265 1.324146761750155 10.952882290316133
60 -10.531720412006381 -24.958510296471324 -0.19350234505104352
73 0.5014502768404491 4.14034139220738 -4.292129701245334
104 -2.314662843248156 6.253085041883112 1.3900646909210699
198 -1.230607601143421 12.86891033775597 -2.9233627779688436
208 8.890525145267139 10.197016749012823 2.247446254581115
49 -10.064035087121036 5.55848054797128 0.5296059099602111
70 -1.7995026240424172 -9.149146997052235 4.6347693249790165
72 -4.113194642197855 -10.126964771870151 1.632704956973547
171 -15.873514356127302 4.902561586837618 -10.039657454829975
122 9.342154127196974 -8.319201574812228 -3.854788463925181
201 3.6483042953332463 3.9231268939003 3.1186469372343018
159 -2.633007089716638 -5.712556854664849 -3.0908192911495553
206 4.58810071710818 -1.3736026296506372 3.868690170494446
84 -8.919775148053997 -3.0258487509922456 -14.786087213545498
4 0.39285333906086845 -5.11309292285687 -2.394270963806649
126 -3.7935601911781855 5.501673920083892 -6.250133718098931
111 3.7459003772115107 0.6300595920261982 1.1404638569745185
128 10.487833508176786 4.409583315513348 -3.313165656772992
194 7.635702948207907 -3.628580807122393 6.388946586756285
205 -7.587637675229823 -2.590606022548119 2.994238723048646
152 2.095186724275832 19.987827663564058 1.8648188192133597
80 1.783311530875815 -11.07859958244802 2.3255866626923036
6 7.522152331051914 -3.052166966082633 2.8500691910679343
39 16.895327751462595 -17.85018269758395 -6.083954674561488
8 -1.6080818631703733 5.64613469208959 7.404146435291703
203 -2.2906288402177557 1.2828257289501945 11.155701653090903
32 -6.152267814152476 3.1858416176592033 -1.4306175087065733
79 -6.016522627498971 5.350762031072522 4.657443766407173
55 -8.042525305048146 12.233230908464568 2.8912181829864085
108 -8.282903326235585 -1.3201165034191134 1.628282511021851
192 -3.6812420178935645 -11.084960265010084 26.988048903680586
98 18.321981682425406 15.296915561242939 -6.001656358101106
146 -5.5734156833130815 1.379763950216737 -9.836090470082961
28 -0.3123324723419569 4.293899050325487 -30.23082745977648
26 -13.35914608543341 -13.069788828114051 -8.747598399348407
179 2.5325020287310647 -1.0263365459483407 1.3895599899216204
102 11.72196547752663 3.7185859486248916 -9.58741331742716
118 -1.8993900714920633 4.334554357214086 4.771641434531334
162 -12.981643464782136 -9.76590878494521 -5.477785483153333
196 -5.669964946502119 -6.056566968856654 2.045362809640796
87 -11.0529973818348 -16.72762426835334 21.477311873384636
61 -13.785029047542803 -3.722563381968366 2.749519490610583
2 11.186208550787608 18.91395139688975 -5.449982079499223
136 -13.704075142141328 -8.862232475379633 0.9798553579411939
67 7.872244312830432 7.338027818189715 -18.50353029665297
132 -2.421252269147409 3.4254635500319632 -3.6599720094457133
3 -14.177014117193401 23.882562100060788 7.746506094879008
12 1.3847844093806767 -5.76763404159363 8.022130644683946
124 -10.759508919161442 9.31334458586252 -11.513119297474926
64 4.052807118951468 0.8481504041460198 -4.450435219090714
54 3.442431891508855 8.480363479109279 -7.598587826957533
153 7.92931765280446 -5.279625370457579 4.305969225502604
212 -2.6984491704685283 -14.043545960644494 12.487546813070688
107 -4.367293902088892 -3.468519231798247 -18.596715663682573
53 -10.041178572767802 3.5414805466812824 15.351436962118528
97 2.6223085111808304 4.218812079810695 5.854023942445832
186 5.030246259642918 14.01597063529267 8.712787598411937
38 13.628819926332465 -14.59847074581818 10.866344045243299
40 11.02148802099051 -1.3913331353402087 -12.895166498471442
99 -8.554863094318089 -10.564089983940384 -6.3716898691612895
100 -3.7744790799321857 1.0606112405162806 6.392513963697848
157 5.32439791431601 -12.396912579122185 -9.63309443997354
180 3.1213966773961213 2.388187140159606 8.73671001526026
207 -1.7885014221169908 4.20972844264726 1.1796716537248992
14 8.896507101050469 7.808989134561676 -4.250647853012886
47 -0.6365067211606947 -28.77445359136219 0.02399668670991811
15 13.954236734992024 2.0072979523301098 2.760739091253023
71 -5.300031900546314 3.1599866267603294 -14.049599705887674
204 -0.5371689951562368 -0.8341004752728041 9.339975759909818
68 7.436791473735192 19.09262836346013 -5.683240545842152
37 -5.189524201711163 -7.806122367218542 -4.3647775522697865
143 -9.170340177277287 14.305036024189063 6.4684050163641
181 -19.841123139595204 -5.011244068466579 4.481773208540284
30 -5.267031511967155 0.679960935998416 6.037451312219264
110 -7.226034260772358 17.301836858613264 2.8034135912403286
23 7.452916366904031 -7.383058491033079 18.59009991148248
133 -12.944346524866262 14.666986599730713 4.606299926330642
1 3.1073438264067343 -0.4149658689527561 -10.117172250831626
36 7.923101003466455 -2.516678258892293 0.12962533388440522
155 11.45655204091344 17.688407983572514 -19.705930197531945
81 1.6432600576949081 -7.367903369140455 -3.181996708449061
9 -4.5085976162880534 -3.0306675990277077 -13.57495639160378
158 -1.9983625679943675 -10.054277128422726 5.979214005214497
11 9.855467784315417 1.7904307768015695 7.40174780690006
69 3.106230873358072 -8.68211619914076 8.243115450934322
149 -1.3865833746635032 -15.276230049643608 7.647026741745701
125 5.9257507246186725 9.719940649814506 -13.170734037138732
43 -0.5236806591499542 -6.2676040732524525 -12.16398673993904
13 9.66138274854998 -4.760735447909228 -6.712262515683759
94 10.274736253346202 -4.362425547322503 -9.570631766118572
88 -13.804008670217934 -7.559319198946702 -0.4822876478261058
86 1.6794139810086037 -1.2050701255075609 7.027588297752277
174 -10.47339808151223 8.22447942776333 4.541770707755592
33 6.838927972266136 -11.964866053436541 7.587276661989695
156 -3.661944244709266 -7.3224830098691855 10.580129071619886
147 -2.7168700244758446 -5.791540538282621 5.6819103034743
112 5.248859884050606 5.537603090487216 -2.539946486993206
177 -3.0222572256365208 7.772705370239481 -5.473819053013482
90 -9.660091129881788 -5.665400800833058 -0.8915397053667135
187 1.4032146046396123 -7.683578120165099 -5.155711439226706
137 -9.780384929350156 11.714985994214176 -13.416763991288699
74 -13.330888028663166 -3.184888327383143 -6.0918867899262485
105 -7.720697543137484 -6.342267060850244 -7.212962469036267
91 2.9244832441388873 -13.318084584805213 0.8083067583832343
182 5.028453783652528 9.4354712161802 1.085586317780824
58 5.055121662899319 2.682574227385136 8.788218896950829
139 8.073219876889027 -18.18470004204335 5.981650596508195
21 -13.52226372124327 -4.8375388330430535 6.719516386957788
209 -6.788527046472255 7.248068262170053 -4.440720487850065
129 5.396930735236865 2.49409881739741 -5.756308270947043
140 12.623108867833189 -11.370284134739931 12.412619035283255
35 -14.37026568256152 3.056314678879949 -4.7144667971181144
202 2.7951886624727806 -0.24401350228376475 -7.686418072263408
189 -3.2497403901872515 -27.62669066775448 -3.90612958489669
130 -13.731348163206443 -8.84843902344963 15.544861140715467
57 -1.8231243584612296 -4.731364374672158 -0.1613517194395439
167 5.871869221513126 6.2819671746688295 -20.533189594830084
134 -14.30541849764781 3.570783551175926 -1.6552767332268559
65 4.743136025983079 6.1123369941553225 -10.229712749737052
214 -13.096898770419424 5.489190730371839 -4.425754824307526
165 -10.063099351633532 -9.15098106154653 10.086299320423752
25 -2.5619294592777178 12.906433118049938 6.12019267562552
83 -6.528156077209951 -18.305333173828842 -9.864674312091015
188 -3.1245464021095097 -9.208649571427266 10.630624138301867
5 -1.0966223291033 -6.67825825385363 -4.327125972636906
16 16.798598827989306 -4.160402957469114 0.44770131496732163
163 -5.543889334016622 1.2178587491525048 10.188925527843546
106 -0.5143867980092107 -1.7499333610182588 -6.95272556265885
93 -2.2410532970124293 2.593351646355506 2.329381320017186
24 1.062596483150591 -0.9330949973745696 3.1352788435090058
191 7.865009272549745 -6.187332168661861 8.504553060264776
119 0.3746925314729589 8.070468180846282 7.968454514648654
199 -10.35745637593506 -7.101445228800262 4.073041592675884
34 -7.0218164423101115 -5.393006026199967 0.5551328866024169
135 -1.9080386979923536 -1.0482311299904619 -8.027314600861448
56 4.410960243961702 -3.7087006313052475 10.589703332539925
115 2.207880972417608 2.622413187929424 3.6444135143095893
63 6.252461347855532 4.308536981267295 11.391406656491524
66 0.4887334712219408 -6.144267775229226 5.275971903085278
141 -2.9618604022524124 7.752338160760925 -2.545391934606713
17 7.47339773781913 10.734749847198142 2.1195835398844465
62 6.854205757318955 13.470509170999975 -4.976571269118343
168 3.383962683773301 9.18250058094992 -10.298041448722538
95 0.2567153018969099 -2.0172874792131337 -1.768953202544103
210 1.610855878083618 -7.359635617183759 15.34501665419452
19 -18.202680415962345 1.8683162710013235 14.33182025141185
20 -1.1464151078205087 -3.1359272535419613 -4.990649107385706
82 6.41092536932209 18.871445940179605 -0.8835936185332255
76 -19.189389776333712 16.719997506553536 18.059851352173098
161 13.925508045309368 3.6405243135221355 3.0431160721546537
164 5.6823586034616795 -11.222636711909294 -5.5354414263182035
154 2.271337672848338 -0.043691890034232114 0.5116668595461243
166 3.1370025999581284 -26.392690642222274 10.971950562667919
18 7.341670039430651 -7.473526231860798 16.81366188472686
216 15.22435254372224 -8.582907283850593 16.02107871415596
85 -1.9995778219754945 -5.3622543737033945 -1.2464269874502418
114 -7.996795879085924 -6.274076653859658 -21.689711529688662
195 -21.419347196199215 4.542496201420021 19.45523071582733
172 1.1897557630264861 15.171934968533732 15.826516973989984
148 11.353190389766276 14.9192905145663 7.8784004465691755
150 0.16448971189973224 -7.355713976721716 -2.3164560666088203
103 -6.138867936651991 5.27086912967617 -2.985922330089315
92 -11.36946418787973 1.8727691302663083 0.866167999156172
173 -3.1666780185855554 -8.517290781315591 -3.6676610362339543
175 -16.69861737342558 11.380898715218105 2.7099396514543086
77 -1.418844792444408 -2.408337341335869 11.807761246150523
41 -0.8999492460977839 8.842243559982046 9.786603383035255
29 0.18423617769365158 -14.284934947786736 2.4598369426936304
197 0.9593684321659031 5.54296648552845 -12.652812022977528
117 13.696947775024638 -0.9166580842018902 4.024854019803847
190 -10.313361920904532 8.982770099986942 2.8113970694781116
101 14.027904570308277 0.23193640943558758 -14.081775970021491
184 8.038912687265137 4.575619207218045 -3.9238837836270686
50 0.8856691613597328 -8.733406044138244 -4.2091713190296085
46 -0.6619821862984161 8.249700622094313 -3.8041076725317735
121 -16.361672426110115 -12.93965523687242 -3.4625585264360397
48 -1.238610627567831 1.3041912709768857 -2.7277917295173584
51 18.27037634242001 16.339363472965374 -8.302461548080366
52 1.6140721387324395 18.64358622267542 -1.7112255512113945
120 4.79124541182807 0.7250451474677515 1.6217834590643057
200 -5.524287865611439 12.05832027778236 -0.851318968074401
138 -11.152964309478735 -16.172388608402343 2.714179478068907
211 23.62769668789398 6.478065581846286 -17.554448964920148
131 16.408536415900308 19.64417005984348 -16.591621999410194
7 -5.983349984187037 -15.948422904803811 28.028891497115062
116 9.718474701089244 -1.4510031006172104 -15.8940855381815
123 -7.313027860767081 -10.681094339508702 -8.876697993444854
213 10.471745138410197 9.914233285504515 4.020266100334417
151 5.188976841569376 -0.5045715779121941 10.06401400062186
145 -0.34202014765025956 -1.720222025299505 -14.869712690725521
