LAMMPS data file via write_data, version 15 Jun 2023, timestep = 6270, units = metal

216 atoms
1 atom types

-3.7029378101540766 7.263682920154078 xlo xhi
-3.7029378101540775 7.263682920154077 ylo yhi
-3.70293781015408 7.263682920154079 zlo zhi

Masses

1 12.011

Atoms # charge

8 1 0 -1.8929562343835808 -1.8549868308220492 -1.9028003024075477 0 0 0
4 1 0 -0.9348594612505572 -2.8477526057243643 -2.844328536701904 0 0 0
73 1 0 -0.11217253635515556 7.262503716855459 -1.8911619948304152 0 -1 0
76 1 0 2.774058034459272 -2.773952945625789 -2.8170776192201052 0 0 0
80 1 0 1.754212919064984 -1.9066945535946869 -1.8708834300313804 0 0 0
145 1 0 3.6414430722002082 -3.697215214409323 -1.8279942718161393 0 0 0
148 1 0 6.364164240670363 -2.7847086165514088 -2.7737334652818215 0 0 0
152 1 0 5.4313186413667855 -1.8143168149468876 -1.87931101934957 0 0 0
1 1 0 -3.6858861144936794 7.254192997298333 -1.8713901500152523 0 -1 0
5 1 0 -2.813492269469437 -0.9196710323568817 -2.763422376208644 0 0 0
31 1 0 -1.9241369018348229 -0.040748589901773435 -3.6788083816985084 0 0 0
97 1 0 -0.07295509951147183 -0.14002797135578016 -1.8903320345055914 0 0 0
77 1 0 0.8673453916598302 -0.9558907921546709 -2.7525855670087864 0 0 0
149 1 0 4.481847027740296 -0.9859811024296148 -2.758308173666911 0 0 0
169 1 0 3.5342206679016925 -0.08004404349368333 -1.8894133422620234 0 0 0
25 1 0 -3.6927442496631118 -0.03815784657616872 -1.862867672914072 0 0 0
175 1 0 5.2305019599297635 0.11374518560479663 -3.5246769004930254 0 0 0
29 1 0 -2.8550468175828088 2.716224996475151 -2.7672038512705925 0 0 0
32 1 0 -1.9166662281283389 1.8012746100454464 -1.8600381323224742 0 0 0
28 1 0 -0.9642967328403054 0.8520230953496659 -2.8214492195159506 0 0 0
99 1 0 -0.025202312748657807 1.7705789416537696 7.212513717730889 0 0 -1
100 1 0 2.6726893014470026 0.8753139701163919 -2.7776325795304855 0 0 0
101 1 0 0.8317562046204339 2.721013068699124 -2.8599686790468253 0 0 0
104 1 0 1.4871001673990634 1.5883082855133575 -2.1371881029053172 0 0 0
173 1 0 4.514571904475923 2.733440994385666 -2.7849468276372433 0 0 0
172 1 0 6.414442084873904 0.8990593916313108 -2.833060078329388 0 0 0
176 1 0 5.2348551599491175 1.5948968019281455 -2.0547042691695876 0 0 0
49 1 0 -3.675949663759209 3.6415638660318983 -1.8647016796567824 0 0 0
55 1 0 -1.8981233484842812 3.628240036169453 -3.691664758536672 0 0 0
52 1 0 -0.9463913324149584 4.5329737724532695 -2.7675088941325594 0 0 0
121 1 0 -0.010884731351158194 3.60858738157026 -1.883567089444327 0 0 0
124 1 0 2.711161992146552 4.550245718103161 -2.7036192410327207 0 0 0
193 1 0 3.6369993800399447 3.6521718236012646 -1.8277480058351478 0 0 0
196 1 0 6.45639609039008 4.502659847783422 -2.7158351920386727 0 0 0
199 1 0 5.456783976648139 3.6304973192005576 -3.6910827694218025 0 0 0
53 1 0 -2.807405463049788 6.375477783786657 -2.783219107817058 0 0 0
56 1 0 -1.800628809957013 5.425343323958476 -1.9195796725392835 0 0 0
125 1 0 0.8595353658143692 6.354751334104609 -2.755587976920592 0 0 0
128 1 0 1.7627297403740094 5.461465355068759 -1.787608190732866 0 0 0
197 1 0 4.5089947177394665 6.352270558707227 -2.730499903945894 0 0 0
200 1 0 5.4408660029058185 5.424730395413956 -1.907005287236897 0 0 0
51 1 0 7.213872269475009 5.480920378122352 -3.6865448547395836 -1 0 0
2 1 0 -2.7694910175782623 -2.7545974838157026 -0.9719923879279131 0 0 0
15 1 0 -1.9000622757030812 -3.6793576734864724 -0.0469714231652576 0 0 0
83 1 0 -0.07295361704070524 -1.9453921147894726 -0.07087633525845183 0 0 0
74 1 0 0.7929551625462263 -2.84036649821152 -0.9601584118757711 0 0 0
146 1 0 4.571826432274427 -2.752661790242624 -0.9603418981521146 0 0 0
155 1 0 3.64947615453986 -1.863271708739914 -0.03713611688288676 0 0 0
11 1 0 7.2456622661091314 -1.8251257002608987 0.04087310006297029 -1 0 0
159 1 0 5.377630042762102 -3.6719983828699885 -0.04039720953550141 0 0 0
39 1 0 -1.8723772205505265 -0.026236060032408304 -0.013818301388082599 0 0 0
6 1 0 -0.9753941348544659 -1.0013571786486932 -0.9568413264872553 0 0 0
78 1 0 2.726390042768343 -1.009469284511547 -0.931547165297248 0 0 0
111 1 0 1.9568902869425333 -0.3749604563241813 0.17431910611007195 0 0 0
150 1 0 6.29855886095264 -0.9055570983414625 -0.9985999977384168 0 0 0
183 1 0 5.399385203955942 -0.010987698697299653 -0.06055449099093346 0 0 0
26 1 0 -2.7885173155498144 0.8576137929774612 -0.9159863827241161 0 0 0
30 1 0 -0.9131474486213271 2.679547642742702 -0.955396209352315 0 0 0
107 1 0 -0.04726928303575617 1.7331607757985328 -0.07978101278353034 0 0 0
98 1 0 0.5578655052710557 0.9934813337723885 -1.2328548957156547 0 0 0
170 1 0 4.439878436248121 0.8508551524107988 -0.9988851795511287 0 0 0
179 1 0 3.2752730781803194 1.5984745513960812 -0.31428499239203767 0 0 0
35 1 0 -3.629185632483007 1.7953148087483424 -0.025472668471423265 0 0 0
174 1 0 6.527882590232738 2.857368528061987 -0.7890228920788935 0 0 0
50 1 0 -2.726227881074504 4.523568177000769 -0.9937582796746831 0 0 0
63 1 0 -1.7771526933787904 3.648700168947534 -0.04892940668156731 0 0 0
122 1 0 0.8886236240126077 4.4581285767131735 -0.929391772169958 0 0 0
135 1 0 1.7819327704842447 3.5566508919954503 0.010286310749800798 0 0 0
102 1 0 2.891672918008129 2.861232173189797 -0.7536367350455264 0 0 0
194 1 0 4.540791476281417 4.5496694254195855 -0.9892489518416214 0 0 0
207 1 0 5.395302844149637 3.6892963134921466 -0.06422201031817387 0 0 0
59 1 0 -3.6739552451481003 5.478514639911172 0.00022877998802917077 0 0 0
54 1 0 -0.9918692969430323 6.30101532691714 -0.9524289215036514 0 0 0
131 1 0 -0.09699221354390364 5.476486558837763 -0.052070411794194804 0 0 0
87 1 0 1.8007559871250702 -3.696689773602408 -0.08098868722242125 0 0 0
126 1 0 2.726755410556736 6.401029208184859 -0.9576266286915351 0 0 0
203 1 0 3.5943375062509 5.406193000345315 -0.03840434791577696 0 0 0
198 1 0 6.337324745139836 6.384748437485744 -0.9115193599977993 0 0 0
10 1 0 -2.786654713773167 -2.8521159729545187 2.6779465016280257 0 0 0
16 1 0 -1.8249661098341161 -1.8823508489453975 1.827368369132861 0 0 0
12 1 0 -1.0147731458869473 -2.8140490860989864 0.9082566273750361 0 0 0
82 1 0 0.8948710441715635 -2.797334813996722 2.7497917681982216 0 0 0
84 1 0 2.7349753824833103 -2.8055487576755036 0.8294511929932336 0 0 0
88 1 0 1.7848903724896417 -1.949382735780373 1.8361415062432265 0 0 0
154 1 0 4.497310373894167 -2.7880528869947523 2.6428220593497818 0 0 0
156 1 0 6.345999353385099 -2.806494358981347 0.8984011663207845 0 0 0
160 1 0 5.437572003272289 -1.8261342009943458 1.8105587028351682 0 0 0
13 1 0 -2.7562947650966145 -0.9499409548579654 0.9577958921971481 0 0 0
14 1 0 -0.945641293205735 -0.9216102536102104 2.71217317362015 0 0 0
105 1 0 -0.03612139335723219 -0.0538106792353501 1.7889852906032502 0 0 0
85 1 0 0.8124385238680585 -1.058086566513095 0.8875410568376729 0 0 0
86 1 0 2.7047975261653745 -0.9295666489564844 2.612527505392002 0 0 0
157 1 0 4.551170360481657 -0.9196741895656673 0.8722285214270586 0 0 0
177 1 0 3.6242174578061377 0.00363947071474513 1.732068965926831 0 0 0
33 1 0 -3.650399942426243 -0.03092990002465701 1.8109225804269702 0 0 0
158 1 0 6.321676578948728 -0.9519411901064361 2.693034840055458 0 0 0
34 1 0 -2.7763854552958143 0.8120789830090445 2.756532037433457 0 0 0
40 1 0 -1.6563398155683071 1.5309740049692246 2.0458293630670745 0 0 0
36 1 0 -0.9382417529061318 0.885430468491438 0.9005899584883101 0 0 0
38 1 0 -0.9502245520502344 2.7016801661112293 2.678043513543498 0 0 0
106 1 0 0.8744532053016956 0.8434606046243234 2.695786852963926 0 0 0
108 1 0 2.636055078198937 0.8276002902487729 0.8132457438492713 0 0 0
109 1 0 0.869873595056295 2.6056740311375597 0.8451044845347582 0 0 0
110 1 0 2.703047415711419 2.6758772845300003 2.696013981587045 0 0 0
112 1 0 1.8265686366674299 1.8010331475850077 1.7780497643862274 0 0 0
178 1 0 4.527491783103337 0.8945218298689044 2.6615824499288427 0 0 0
180 1 0 6.4196455049418075 0.8826969555756055 0.8210395330534874 0 0 0
182 1 0 6.336475003479097 2.6907084024041428 2.65325886322447 0 0 0
184 1 0 5.490648719491722 1.7602921260694657 1.748802878176586 0 0 0
37 1 0 -2.9084824680725987 2.9181025189699454 0.7330018048630533 0 0 0
58 1 0 -2.7733182279447575 4.529873343663047 2.713169089261158 0 0 0
60 1 0 -0.9492389312513332 4.5388932176036985 0.8778378048801576 0 0 0
129 1 0 -0.037368958320984635 3.5730755095312725 1.7521727167774541 0 0 0
130 1 0 0.8836707663479846 4.502537337955118 2.694629173064878 0 0 0
132 1 0 2.676176605378031 4.4983341893874105 0.9124651768682952 0 0 0
181 1 0 4.751584790135195 2.8960253942240684 1.0839054570871793 0 0 0
201 1 0 3.613884631334063 3.6069333078530725 1.811565066396665 0 0 0
202 1 0 4.487744093654743 4.659406875587026 2.7680650083566842 0 0 0
57 1 0 7.249043725683721 3.6747047382083924 1.819523924080774 -1 0 0
204 1 0 6.39018617033729 4.614611103200275 0.9189048322357394 0 0 0
61 1 0 -2.768481024068823 6.378211218446586 0.8613432289290346 0 0 0
64 1 0 -1.873709775276502 5.486480817366857 1.7680037164870699 0 0 0
9 1 0 -3.6885264776664055 7.2460433486408515 1.712577270249489 0 -1 0
81 1 0 -0.04931515979353174 -3.695267217605384 1.86138980831885 0 0 0
62 1 0 -0.9256981691762189 6.376117819016972 2.6961083843006453 0 0 0
133 1 0 0.8398449542574351 6.382529740076638 0.8729728915245394 0 0 0
134 1 0 2.649648844778598 6.321676255021959 2.714273253745092 0 0 0
136 1 0 1.7716401181859913 5.4345648666206685 1.7698518485057066 0 0 0
153 1 0 3.5934420260602282 7.208548791783651 1.7152575915916524 0 -1 0
205 1 0 4.521147250255306 6.324569957552448 0.843525013914876 0 0 0
206 1 0 6.3825605729043255 6.401826953932126 2.719114759448588 0 0 0
208 1 0 5.431441232007205 5.52401914276008 1.7934788416811065 0 0 0
20 1 0 -0.9367481218074789 -2.822283545613267 4.518473152399872 0 0 0
91 1 0 -0.04524412936339983 -1.9183143488731083 3.6162823034942377 0 0 0
92 1 0 2.6959018714245833 -2.8110239007610027 4.571452720945227 0 0 0
163 1 0 3.5644562313166643 -1.8932196856522139 3.5739863264766463 0 0 0
19 1 0 7.206036316757028 -1.9402360931567484 3.545013542693159 -1 0 0
164 1 0 6.333028149236049 -2.773847660552784 4.517811465920157 0 0 0
21 1 0 -2.769828632152177 -1.0555695415144588 4.428127953389583 0 0 0
47 1 0 -1.8663862165543879 -0.06273996867632503 3.629662736740273 0 0 0
93 1 0 0.9155464124304951 -1.0044219782896984 4.51034183430058 0 0 0
119 1 0 1.81987200709841 -0.010717251325208288 3.6048062743723284 0 0 0
165 1 0 4.507735801271488 -0.9549237311448682 4.488180930556749 0 0 0
191 1 0 5.3662252782904 -0.10660557877624077 3.5787633623138984 0 0 0
45 1 0 -2.858962121035238 2.6583425322302228 4.452925462141452 0 0 0
43 1 0 7.206501176598529 1.7052851024701319 3.5619229282808744 -1 0 0
44 1 0 -0.9697895385255548 0.8951489075306238 4.528290130887748 0 0 0
115 1 0 0.016344734255465898 1.777516845103401 3.5855839279558817 0 0 0
116 1 0 2.730487626374077 0.8316950346450742 4.534813792471906 0 0 0
117 1 0 0.8394900558862757 2.7177945380525523 4.5373199262142405 0 0 0
187 1 0 3.6154014602758826 1.7583070089477317 3.586184358228003 0 0 0
189 1 0 4.459197853006105 2.641005997615184 4.523939665219117 0 0 0
188 1 0 6.287025152900822 0.8494883784267886 4.4951921374236745 0 0 0
71 1 0 -1.857675959279671 3.605185118555384 3.681412124023728 0 0 0
68 1 0 -0.9678378410998643 4.520812445974899 4.543292011795631 0 0 0
140 1 0 2.6907204991110474 4.564982346786119 4.572560247333953 0 0 0
143 1 0 1.8037847999156416 3.58723117725331 3.6413319352780302 0 0 0
212 1 0 6.290537510902525 4.530846468621483 4.471865730388813 0 0 0
215 1 0 5.357302414121469 3.5704979423097996 3.5947608129723356 0 0 0
23 1 0 -1.884903146288681 7.235138766971504 3.6325483700412793 0 -1 0
69 1 0 -2.7678898234815437 6.371163662824403 4.529950657427823 0 0 0
67 1 0 7.230340799596577 5.488348666388696 3.5799670681240423 -1 0 0
139 1 0 -0.04121106756811388 5.396636342632451 3.603309810547106 0 0 0
95 1 0 1.7600311664777193 -3.69859124636082 3.5952328605638364 0 0 0
141 1 0 0.8789984716757999 6.2841877799792165 4.477740125039005 0 0 0
211 1 0 3.5454635624347235 5.472431475658727 3.6330217476185274 0 0 0
213 1 0 4.477055567633639 6.4230552095912525 4.480291414087543 0 0 0
167 1 0 5.43541220026425 -3.6547999471186703 3.548809274253494 0 0 0
18 1 0 -2.808419396275818 -2.785955710644512 6.355907476865879 0 0 0
24 1 0 -1.8759633921573147 -1.9112679268751367 5.419164657176943 0 0 0
75 1 0 -0.008711132277558153 -1.919779837377564 7.2590629188894615 0 0 -1
90 1 0 0.9047592453767699 -2.8226104821353766 6.347745012598986 0 0 0
96 1 0 1.8017705863203224 -1.8775317765303992 5.471097320283589 0 0 0
79 1 0 1.7508585190668935 7.239600073196408 -3.6610883274949524 0 -1 0
147 1 0 3.669114716752512 -1.9025590004639317 7.242405318512827 0 0 -1
162 1 0 4.613160480405537 -2.743053537083197 6.355260460719799 0 0 0
3 1 0 -3.666734856686044 -1.8586010310757033 -3.6394590690802096 0 0 0
168 1 0 5.447099646824223 -1.889419093948082 5.334414747839507 0 0 0
17 1 0 -3.701928415810298 -3.667301869411902 5.428369912055877 0 0 0
22 1 0 -0.9666440495410273 -0.9746492306271755 6.34637060519496 0 0 0
113 1 0 -0.045920922912436435 -0.07453488712597967 5.427703867621319 0 0 0
103 1 0 1.7847488914940506 -0.05296607949598764 7.250074691828222 0 0 -1
94 1 0 2.7128730077615275 -1.003160963058447 6.388322556301129 0 0 0
185 1 0 3.647065271230545 -0.12300979533554202 5.447179890475607 0 0 0
41 1 0 7.234092865613838 -0.10455958440392088 5.312316861127818 -1 0 0
166 1 0 6.547042556419892 -1.15934467401078 6.125557422496949 0 0 0
42 1 0 -2.8095084454111996 0.8824103858532446 6.216840499289202 0 0 0
48 1 0 -1.8624499157688574 1.8626237146998008 5.358928854016397 0 0 0
46 1 0 -1.004966559001331 2.6998091905162296 6.379227425049373 0 0 0
114 1 0 0.8670850862410786 0.8383650905450954 6.33531769419631 0 0 0
118 1 0 2.6897436848048963 2.716125945749268 6.404515231227863 0 0 0
120 1 0 1.8054718647783154 1.790496075143576 5.407288669338755 0 0 0
171 1 0 3.6072224330448446 1.8237469248563665 -3.6975485117829114 0 0 0
186 1 0 4.494252306436567 0.8309893845919776 6.323899192009367 0 0 0
27 1 0 -3.6818961527296965 1.8062951971093835 7.176419982558882 0 0 -1
190 1 0 6.295448677028937 2.710477865444471 6.3094369486695365 0 0 0
192 1 0 5.360290607442731 1.746651494418936 5.445464935838447 0 0 0
66 1 0 -2.59106862133849 4.7304044377388745 6.554074307166323 0 0 0
137 1 0 -0.08040916259492414 3.6387796680300317 5.465105477914611 0 0 0
127 1 0 1.842883489707404 3.6850690813556444 7.237754676715077 0 0 -1
138 1 0 0.8745778631046388 4.5398183049605 6.34367524464301 0 0 0
209 1 0 3.664097415902779 3.6985414044728753 5.460271702946035 0 0 0
210 1 0 4.543390210886039 4.559410079721767 6.34997983318173 0 0 0
65 1 0 7.006883836189405 3.4013953143155042 5.153684239581998 -1 0 0
7 1 0 -1.8570844966035358 7.235939015840982 7.254261977367501 0 -1 -1
72 1 0 -1.8009740799625635 5.444021147169831 5.455147509645202 0 0 0
123 1 0 -0.013795395777040476 5.4363848292409465 7.23615970884222 0 0 -1
89 1 0 -0.0017770955562714796 7.194698407645504 5.451023319279423 0 -1 0
70 1 0 -0.9606178847380997 6.350362627836336 6.385403515523392 0 0 0
142 1 0 2.742764707058078 6.387295107988658 6.366270262124618 0 0 0
144 1 0 1.7866073869208297 5.441762390199573 5.465979458741601 0 0 0
195 1 0 3.644838399829845 5.445026880586774 -3.6553013516815485 0 0 0
161 1 0 3.625358413273264 -3.666081545242651 5.471723165072482 0 0 0
151 1 0 5.449032957911807 -3.6782947788497395 -3.678878669319256 0 0 0
214 1 0 6.3399711814430555 6.3148545140079 6.3582522031076225 0 0 0
216 1 0 5.39313864890438 5.491561608088752 5.424849793876832 0 0 0

Velocities

8 -6.792429717993942 -4.455052449153297 1.9716237440564366
4 1.5925242785729148 3.265746749753259 2.2715264212376542
73 0.18325218850516553 4.081159690584866 0.7624553262996165
76 -0.3689615188227253 -3.4620413412294004 -0.7046494717600703
80 -1.297185618094629 5.404020733220297 -4.566299413409534
145 4.257283097113321 4.285285523411431 -3.2127713519918633
148 1.906893714146268 -4.830592497058508 -3.1704968040585224
152 -3.012219635115781 5.77828392503996 3.339969677111775
1 1.7353686930717718 0.674826663161661 13.365984593217798
5 0.46691389030077984 0.6342958498036367 6.227948954235065
31 -1.002137057073423 -4.376090884213155 11.266820466598169
97 5.255301427703968 -6.39798486747592 5.237956154241708
77 9.669252609467419 5.70119313298975 2.9459375313601766
149 -3.5915592384751776 -1.1492989442284034 -0.8470647512294096
169 5.742356501013346 3.972602009925318 11.534793667967289
25 -3.2742146779471804 -0.6544981981453805 6.216007585699312
175 5.0557408669218304 6.315339979164825 3.1953566035808008
29 1.9007409306248586 -1.1688440696903006 5.779520437215983
32 -2.0592884085621237 7.64678031723257 2.4620671101402456
28 4.606068882916591 -5.072233353129478 7.568757961393589
99 0.446647972442522 -0.9062927448241798 3.18682554368434
100 -1.8267769072206335 -2.979245338345699 -1.0020244814270107
101 -1.9887426619420039 1.7350989766230545 -5.542386835126945
104 4.934325989613543 -2.1978010209330145 -2.894408693469931
173 0.5232044603474364 0.9903975374532117 -8.35860589925542
172 -0.10337615653233548 4.477756467811422 3.9386708463545723
176 -2.6900217126962547 -3.1951968549957583 -5.232206176011026
49 -0.16721732892305335 0.736909952649219 1.360572199768627
55 -11.759770886231962 4.017216557341756 -6.015283940348641
52 0.5262161619825161 -1.8769141239290001 1.116317089028732
121 0.7041883410060835 -2.023296310465753 6.607106888467506
124 -3.2113597108383907 3.704194212329462 3.7812717761125145
193 0.41186754607109693 0.1346329931158642 -5.7358172127560625
196 -0.3870295893900597 2.570122358822394 0.9623170847205317
199 -1.0170064233423828 -3.3011565563502607 -0.8269426355561446
53 2.0398665350903453 -2.2742139285264886 -4.550635612792213
56 -2.7586576777792264 -3.325137333444119 0.2765903774778869
125 0.1251529022075482 3.495650891412916 2.6458337918377612
128 2.9964297009050957 1.3712839130172418 7.65409485684434
197 3.082722548406596 -11.308480372107075 2.608669688457722
200 -0.7981578680597852 -4.454791226808735 -6.586544066785573
51 -3.4335786433576807 3.2196583155312783 5.449090981070963
2 0.4550877120866987 13.11443985973513 -9.091723101879797
15 4.332853338594121 1.877160775025062 0.7153534080618966
83 0.8852122893951829 -4.115555810624988 0.527475505967034
74 1.6549299677034368 2.022289050798601 0.6097796435027293
146 -4.747538877653716 5.869472667746189 -0.7845382873527623
155 -5.174272199452996 -6.874453285627028 -0.3421056382504232
11 -2.293084946054232 -2.5762789845884284 3.834368874385569
159 -2.5502848583063438 -0.7522444483378944 -1.3202135565043116
39 -2.9813468601283235 4.1290103178062445 -7.5698876102034465
6 5.542756980885095 6.544549383591434 -3.537756400738932
78 -3.0765475089806347 5.800752329871363 -4.685009309601113
111 3.800665399379021 -6.7368754170752165 0.48697028246420104
150 -11.391776473177227 -6.702416894731642 2.0601088666151877
183 -2.2076946424346438 1.9218667895535497 -8.638994572705995
26 6.046132236916997 -3.228163813732909 4.7282421867156295
30 -4.696725970204814 6.989482752516926 5.323397699332211
107 -3.805879251299815 -7.944190384447701 -10.09168858045916
98 -1.5948881825767032 4.088950416894743 -2.6265518932110714
170 1.5358888827426853 -0.6951902798681765 4.380612472812668
179 1.333431582438362 0.05355155154607156 3.088700879889996
35 1.128259318969087 2.801331855875244 -6.6135026056722515
174 -3.517957973012127 3.35666187166228 -5.651400484652538
50 -6.945398678841302 -2.3970295284629404 0.903336695206205
63 -0.6255354377206014 0.5914228194337674 0.33003444583806885
122 -1.1303087419166806 -4.8372210949369 -4.477100427800115
135 6.661752532431539 -2.5944314166425833 1.8766452946660923
102 3.041175203788484 3.426138206828717 -4.637596123331254
194 0.018631865338325948 -4.814233992438249 -0.21948398099470232
207 6.96935843792701 -7.1795214087385295 2.538182192506511
59 6.226972802909029 5.237345508271694 1.3982662080986348
54 -0.9836181640924901 -3.9447462573400416 -4.577915988678147
131 -8.557361036156472 -2.572643485656843 4.573632995257375
87 -4.720526444575593 1.8764780833113752 6.791148682163516
126 2.1260856224428055 9.3203458019861 -7.178748200429548
203 -0.977802162497063 3.375860487165265 -9.944014636796057
198 -6.861586100589558 0.5957884310555865 -7.838356149679446
10 2.047080941421625 -2.3285173967287416 -7.637064348232226
16 -0.00031316311319853506 2.1205569481815956 1.2464940356431797
12 4.1464346314350236 -0.8474057478001468 6.960785724721056
82 -0.5424770451548049 1.4725014862527066 3.6334748960570264
84 -2.1506234073821644 0.7875099965722632 0.29325290547117633
88 -2.0148305144355887 -1.257352220856021 4.453519858723914
154 -7.085889092671005 -1.5031655966290802 -2.732010631440868
156 1.2913268168863383 -1.8589539247647893 5.0902846223502065
160 -2.063070625259506 0.8048637159850429 2.676561568429501
13 -5.350772240769535 0.6080588553567545 3.3728008636869595
14 -6.685373072953387 -0.24075147524854934 3.576285867503754
105 -0.6436476026501913 -6.227248159163644 -1.8780324135168291
85 -2.5219857643306223 9.455385300564801 2.6565660919931458
86 -7.147260039514398 2.160984996064962 -0.49137617990395116
157 -1.3339886601770161 1.3058150180419918 4.108605301420435
177 1.7335184331959828 -6.965991248652585 -1.197707707973162
33 2.4984511506226252 13.256875855784923 -4.383642126114927
158 -5.640790460570394 -1.2119048314718206 0.9725407905359619
34 -6.508208376440371 2.1932944180735543 3.5826646621959917
40 9.51758497369208 -3.5149643189355855 -4.456417907596046
36 5.12482323350208 1.0443369817637695 -1.7595107943231156
38 9.919252701535353 -0.21570675289826705 -6.176362674287978
106 -8.629098355843444 -0.4893999069648565 3.9389343835284443
108 -3.2451877357373733 4.981948517119114 1.584628045186171
109 -4.277222380398691 -2.4228288499539223 6.206734096656913
110 4.089792994649569 -6.99668255909078 -1.0264427714774507
112 7.237459748552681 5.044453260494936 0.4790299611033046
178 -4.551464982035517 -6.659205367774962 4.5683446237092875
180 5.752828139865082 -0.1658581485597601 -0.7168913565959365
182 -2.4019756011535636 1.7514547970222925 7.3359676577445825
184 8.597466800315475 -8.398924536021378 -3.4044430402024033
37 1.6588524162311236 0.16584838887589173 -1.9575743737959121
58 5.226789779505721 -0.3002713694453535 6.478898833755017
60 6.643108652597819 -2.731568373842124 1.8723979271859728
129 -0.3062101195436475 -0.1189282815998026 10.389576336770983
130 4.238209536059732 -4.363471259374817 -4.538087732404638
132 -9.68126499976517 -0.18384697080773327 4.4337718987064
181 -1.4827895669323592 -0.436722147069412 1.7498297840303305
201 -0.34132312244161944 2.8915097617860006 8.239546533483725
202 -4.577740172618663 -0.8996738106111926 1.0760325504001218
57 0.9449177912826029 1.788992524368974 2.424526906266175
204 4.015868293400128 2.6416312108828692 -1.5253393913148894
61 4.808344658056223 -4.544173283953885 -3.3504035257703007
64 -6.47758086575687 -0.5509519562035975 -2.3883033017577526
9 9.372528367043525 -3.458516569516784 -4.19438256298733
81 -4.553892287800915 1.0484605389916126 -4.401626011431526
62 1.1770381142333066 -3.249132657293929 6.9303961471208835
133 -1.800056760112271 2.3363487957422273 -4.657316351546467
134 4.367653067362116 0.16626969754180618 8.252296864865063
136 -1.666768691225961 -7.6401334026704175 1.1208836089902265
153 -4.274876152414132 1.5983851581539044 5.659904616528763
205 7.333472540604548 4.453812883310572 4.303644359467903
206 6.851394843375889 0.2630386896500303 4.388788608341956
208 -1.6535310725587302 -0.05727628793980686 -4.638728218067686
20 -8.956694481734166 6.218982638128395 -3.956090559833325
91 3.3614932926401266 9.860057112233761 0.9037575507877518
92 -6.068213046425147 -2.878869461138689 1.351818177366384
163 10.019555477243495 -2.4935807350360633 0.13486230045996384
19 2.8134875668067068 2.714970169080787 -3.7082977256131677
164 -1.8435326484885184 3.2329770461114387 -2.2525733052241317
21 2.2788203534014797 3.591212307344854 1.4199660895428379
47 -0.39905766143853955 -3.2239266080489895 3.1958689696169746
93 3.2201189180483913 1.4513493497063252 0.17470084048338091
119 -2.4826502126669245 0.5040714411286963 6.804950086899271
165 -2.0004841794321147 -3.9648579563167607 -0.20287857780614882
191 3.997352913743556 3.455022939573273 -4.763574511675885
45 3.5085596155268366 8.026082886103923 -1.7687005558182851
43 -3.6823646160483174 -8.718552390676942 -3.023771822617085
44 2.4972873595990674 4.131283844586334 0.19649455236479293
115 -5.629624452088555 7.992346717831591 3.514085987146724
116 0.23856344542210794 2.2924552590728515 -2.786911276283665
117 2.1881322082953187 -4.276579354164175 -3.910422984555901
187 -2.122398070095032 -2.4530656214314033 7.707503280564783
189 -0.4492059701931714 -2.146409347278739 -5.800276820334228
188 0.7400061669457164 -3.167010358756838 2.305124402242478
71 -6.807847523110944 -3.5453776385688385 -2.0360220406377105
68 1.5221668549809522 0.28559625390004495 0.12755929917124373
140 3.5497676182294904 -0.8744054723309778 2.9771866059742695
143 3.8346614543506985 -0.7273381830679606 -7.002074820106124
212 -5.406490809901436 0.5880474304294506 4.084648299564856
215 1.55331582558103 0.19426557313606557 -3.3163575420405307
23 -3.0493372630660267 -5.747509209221645 0.3264095710622737
69 -1.0066440351379822 1.9505670182714558 1.955345615961275
67 -1.6163050755353985 4.8467473581566285 -1.3712989375510334
139 4.299702114307073 -7.767474413749295 -8.606353708721098
95 2.52342167232566 -3.015620720289591 -2.529944628854278
141 0.18975602363167896 -3.4902498345862725 -4.81615179207083
211 0.19778893646929155 -2.8139310445429193 0.040370912839653904
213 2.196532782569027 1.450400798113979 -12.073390084907787
167 -1.5024557465569466 3.630660333753882 9.874913350796898
18 -1.737340937935923 -9.028846032154851 -2.095839142671037
24 5.05841867509217 0.9057907266848705 1.6138465895510814
75 4.79823350703818 -7.7283673891230125 -1.3086775121373486
90 -2.6600377569085927 3.5584659390645283 0.1239484986265492
96 -2.0581020894793043 13.111032993750563 -1.9457712960980496
79 3.640773688258585 -2.500968299820647 4.672246835919563
147 -5.17446515294324 -1.8164050119159385 2.501092230805656
162 1.087952472806535 8.355201980430468 0.1493810422200793
3 0.5261830833436131 -1.396149310602354 2.770363087574047
168 -1.5105019510202127 3.096040186054328 -2.5516238743781297
17 -5.719515140912239 -4.131930955637375 5.7805980783320985
22 0.6973882007409731 -0.8585953783339316 -2.301068006237127
113 4.054969655851237 -2.9554804160045256 -0.2526138316377384
103 -1.9033067956475593 -0.19346203296913955 -7.573152073458678
94 0.2925842230715679 -2.508536435831118 9.963789900682892
185 1.4408646995198497 -0.504927512487846 -3.678233095362874
41 0.5066986452204361 1.451526286300099 -6.787649173828367
166 -1.2890022866082573 3.4927950363073172 0.20679653117678592
42 1.2188584421752944 -3.6549540106872267 2.0711747025108536
48 -2.002143645909053 1.9327228461335617 -0.8688647364454726
46 -3.285531460157264 -6.3657100123471775 -1.1182909217406771
114 3.9794043881587924 -2.6501483424404286 -4.589823280762105
118 7.629197012064228 2.6862273059640813 -2.2324925754150966
120 2.2566002676445454 10.479907914352303 -1.0059543792719978
171 1.103930511125768 1.7329415744234606 -3.902143723879093
186 -4.353986760222236 2.0929751540043737 0.05495790890434427
27 -7.436386064125575 -0.35124218732980783 -7.907920319729591
190 3.522248356799895 1.473747312928803 -8.392018544006266
192 -1.0384362249126295 -4.123843058790094 1.9160268158402798
66 -6.237466603519555 0.83061486119502 -3.374660984236414
137 -3.752730007441446 -1.9922671307325241 -4.871340800003213
127 4.355729404569962 -0.962467667871415 -0.05737498876582829
138 1.369722618906571 -2.995457106003838 1.4603177743437263
209 0.12209684102654188 -2.738336217200683 -6.785154403242268
210 -4.49656751700335 -7.906476843968601 -4.5799975504963015
65 3.680866061596504 -2.8711631921819176 -6.006045922225734
7 4.468472655794582 1.3389776308437644 3.6932041226656
72 -2.3222218862718025 -2.2625303314161185 -1.4302810120874454
123 8.21812641734421 3.904354397630391 -7.51547275332591
89 3.1587764436855204 3.7086356012939468 -1.8812125164390472
70 -1.7746767645678574 1.9848810113177897 -4.491420592160191
142 -1.597444408227741 1.2274867301067511 -2.4441344138448877
144 -1.4168715482730563 -1.5047214175532848 2.00672298127774
195 3.0044471630967564 -1.1013469197142733 5.100292405253572
161 1.0918134411356661 1.2268193253588204 1.4267415464629223
151 -1.011454403989993 -2.153207322253769 -2.213081166397194
214 -0.30480479486447654 -1.8817596845396898 6.519741258863643
216 1.5657793587035613 1.1020101008050633 3.5866707724993363
