LAMMPS data file via write_data, version 2 Aug 2023, timestep = 6903, units = metal

216 atoms
1 atom types

-4.579699030585333 8.140444140579522 xlo xhi
-4.579699024859999 8.140444134859978 ylo yhi
-4.5796990306066325 8.140444140606624 zlo zhi

Masses

1 178.49

Atoms # charge

2 1 0 -3.0958775990040834 -3.3556375575087554 -1.311288174655556 0 0 0
4 1 0 -1.2494070963379351 -4.197071190952418 -3.4307686733642226 0 0 0
5 1 0 -3.1286747137886035 -2.1138537117746314 -4.1943498069599725 0 0 0
6 1 0 -1.335128828157662 -1.410421120877344 -1.48157884337173 0 0 0
8 1 0 -2.5901901737478377 -3.1171964604187816 -2.9022827183733844 0 0 0
97 1 0 -1.1434623409057347 -0.5990207590961565 -2.6756435963062533 0 0 0
3 1 0 8.065042594185236 -2.381040160556605 -4.470743858256617 -1 0 0
74 1 0 0.6361059910020055 -3.4918242719287163 -1.3370951369389474 0 0 0
76 1 0 3.280896110290782 -3.7925766848806117 -2.9755722161821514 0 0 0
77 1 0 -0.240917827068162 -1.7268806387070956 -3.152265188892783 0 0 0
78 1 0 3.397685905496526 -0.9398425697831376 -0.6435640943394483 0 0 0
80 1 0 1.3100897252386723 -3.3454415477057475 -2.6075813012126687 0 0 0
155 1 0 3.81624428625482 -2.793283699195551 -0.40694799166890405 0 0 0
83 1 0 0.09279133335820777 -2.025493064484814 -0.8591699638558894 0 0 0
146 1 0 5.3300142371168135 -3.196307981586301 -0.8363262933762496 0 0 0
148 1 0 7.739617013089241 -4.205263182209726 -3.8038506676763664 0 0 0
149 1 0 5.1402950082872945 -2.0137400116714725 -3.0015595908986574 0 0 0
150 1 0 7.22771247017932 -1.5978779827830336 -1.3045154315268506 0 0 0
152 1 0 5.761212191138531 -2.01468407103981 -1.618589445137876 0 0 0
175 1 0 5.304682578971299 -0.47486851606306235 -3.5403846716066436 0 0 0
147 1 0 4.673820475235862 -3.3221956641167054 -3.7734058591457136 0 0 0
31 1 0 -2.436573456858853 -0.6075997186109161 -4.525844928620852 0 0 0
39 1 0 -2.74166289980539 -0.4115068191097029 -0.413151910194685 0 0 0
26 1 0 -3.4728093025920708 0.1979681825441295 -1.7203092465318823 0 0 0
28 1 0 -1.9372828405615694 0.35764010603021923 -3.471264864971364 0 0 0
29 1 0 -3.563900237220275 2.594359812673604 -3.4454269894999507 0 0 0
30 1 0 -1.2445767889540371 2.9838537816557658 -1.593836149047433 0 0 0
32 1 0 -2.8269412720787073 1.3186624635099413 -2.919529826931198 0 0 0
107 1 0 -0.4321978581875001 1.3041648405985447 -0.589762846346833 0 0 0
55 1 0 -1.548264708652309 4.206412783292319 7.417993957783605 0 0 -1
121 1 0 -0.0011574190582166466 3.2896557383404357 -2.8196841829121566 0 0 0
169 1 0 3.4717274999920367 0.28917741361000093 -1.8581008091696813 0 0 0
98 1 0 0.1063364025283704 0.6988867743691101 -1.8714962559817052 0 0 0
100 1 0 2.3044396439766004 -0.010143420275054105 -3.1699738832478337 0 0 0
101 1 0 0.6957079273200977 2.1322784847212306 -3.826732256273481 0 0 0
102 1 0 3.3380895316720274 3.505863196453343 -0.7109598449849974 0 0 0
104 1 0 1.1802924745545447 0.9935984505422804 -2.930856225555601 0 0 0
127 1 0 2.3228610860667427 3.1428976787336103 -4.018792788886451 0 0 0
25 1 0 7.5721831975186795 0.09294927597644431 -1.8105808179883796 -1 0 0
193 1 0 4.27053331317849 4.339360495796011 -2.3536571403419986 0 0 0
170 1 0 4.340555688196332 1.0295541288437935 -0.9264553378980476 0 0 0
172 1 0 6.018737042496538 0.5000515099400955 -2.382929499239042 0 0 0
173 1 0 4.928290839904191 2.62604055744605 -3.290143884962859 0 0 0
174 1 0 6.260718408079276 2.3720101580643007 -0.6683826763186502 0 0 0
176 1 0 5.409595723135238 1.730854197067674 -2.0078010741459997 0 0 0
207 1 0 6.006073726846013 4.191884826414603 -0.2442297696532254 0 0 0
35 1 0 7.5397945191733005 2.1501999808194396 0.16397541677371752 -1 0 0
171 1 0 4.229721027858096 1.6609646060062841 7.833351390349679 0 0 -1
73 1 0 -0.2731253540120875 7.598418628699748 -2.5808467763950356 0 -1 0
50 1 0 -3.3872474459520747 5.299261188482478 -1.821338978619564 0 0 0
52 1 0 -0.4349546700107467 4.257372015043175 -4.081491093265769 0 0 0
53 1 0 -2.6522760055002648 6.6171963242365335 -3.9633698805792696 0 0 0
54 1 0 -1.1363445573937918 6.772899019989956 -1.642760756488403 0 0 0
56 1 0 -2.8166180015067357 6.765439774698048 -2.6219142037667877 0 0 0
59 1 0 -4.320953001311201 6.124865647659612 -0.936892052040311 0 0 0
131 1 0 -0.5583840965151712 6.888864010012113 0.013056604625401924 0 0 0
79 1 0 1.7341701331257058 7.7703398701786055 7.8916430600326555 0 -1 -1
122 1 0 1.4647373592989634 4.450065833022193 -2.1184191780081036 0 0 0
124 1 0 3.396846193930637 4.645313075157028 -3.7098339024120075 0 0 0
125 1 0 1.1812825569523113 6.905410801890217 -3.396148011904974 0 0 0
126 1 0 3.4886419664283554 6.604724865268767 -1.7672299549479176 0 0 0
128 1 0 1.9512424570685702 6.156211493003744 -2.3964193831412275 0 0 0
135 1 0 2.372626888701496 4.678049701770024 -0.7127396050916519 0 0 0
145 1 0 4.0737949792259815 7.6255071057627655 -2.6549141205580535 0 -1 0
1 1 0 7.358711855643856 -4.388399262506282 -2.440934166099578 -1 0 0
49 1 0 -4.074733914313554 4.292591981841466 -3.096948519753049 0 0 0
194 1 0 5.640154315160995 4.898405760000304 -1.758999437444126 0 0 0
196 1 0 6.9722994218335845 4.499976987677999 -3.4373320970863865 0 0 0
197 1 0 5.473552640815175 7.233164293987083 -3.4467914690457464 0 0 0
198 1 0 7.433000755866518 6.928128715851696 -1.9272673327543304 0 0 0
200 1 0 6.419868699815899 6.0126192769752 -2.775241338841174 0 0 0
11 1 0 -4.493804109276375 -2.340509910962223 -0.6178239306780013 0 0 0
10 1 0 -3.0997837650448283 -4.19782741997718 2.211053376456185 0 0 0
12 1 0 -1.8292472693737296 -3.9335179953658495 1.474968205020959 0 0 0
13 1 0 -3.849383346415962 -1.3509036763949664 0.38967913610607763 0 0 0
14 1 0 -1.5008276982820514 -1.4180271502095514 2.5129297611786248 0 0 0
16 1 0 -2.1677967092021215 -2.8578835792473787 2.201579772536979 0 0 0
33 1 0 -4.087206154963234 -1.0251925473286314 2.227026650635106 0 0 0
15 1 0 -2.6629033266944635 -4.04561463389045 -0.07867677170982912 0 0 0
82 1 0 0.7539746031039511 -2.9926035187382123 2.948932189208711 0 0 0
84 1 0 3.0067373255787837 -4.00976995449599 0.2663356562671506 0 0 0
85 1 0 0.8493760087649065 -1.600348491012423 0.6083395182771287 0 0 0
86 1 0 2.6795856879107864 -1.1977866753890636 3.347674297865699 0 0 0
88 1 0 1.2790885708039275 -1.759798844248885 2.217813342561052 0 0 0
81 1 0 0.2477047988115766 -3.857357023491558 1.618649980636932 0 0 0
19 1 0 7.986756693496876 -2.186954966208063 4.576162283858779 -1 0 0
153 1 0 3.7051470256763963 -4.217423934080877 2.217459504893169 0 0 0
159 1 0 5.8451753702101765 -4.043572311869051 0.35643747062760767 0 0 0
154 1 0 4.546857161191358 -3.1800527727751495 3.026600235458621 0 0 0
156 1 0 7.603675174346812 -4.01131634635948 0.1271078010554847 0 0 0
157 1 0 4.8854810258788 -0.602222558745614 1.5373821618735546 0 0 0
158 1 0 6.988417184809505 -0.9039206141758158 3.0401594210036453 0 0 0
160 1 0 5.42618574701619 -1.8173660808232235 2.434241257528895 0 0 0
105 1 0 -1.0269723117940583 -0.49611197285206643 1.2613259555267167 0 0 0
34 1 0 -3.2962299881256527 0.36516947952705703 2.588820921086655 0 0 0
36 1 0 -1.7159379336077794 0.41907033101027036 0.3840535513404726 0 0 0
37 1 0 -3.7207069495192404 2.736768072848988 0.5415243966306171 0 0 0
38 1 0 -1.7863741163346898 2.560454944915392 2.5269533814722687 0 0 0
40 1 0 -2.574924997330011 1.5673259498985246 1.4956390429271407 0 0 0
71 1 0 -3.1152021686375795 3.1655323808260114 3.174713462833475 0 0 0
179 1 0 3.710326368488868 2.8819637740602992 0.5322102281969254 0 0 0
111 1 0 2.2363875006555247 -0.6473460765477994 0.31418566738142406 0 0 0
129 1 0 -1.2800281722430409 3.0556701380830775 1.1388867714137394 0 0 0
106 1 0 1.3922332551276035 1.209318731992771 3.5597100645516955 0 0 0
108 1 0 2.4190526309901577 0.5209772430086463 1.2961837548664104 0 0 0
109 1 0 -0.12211148162411778 1.9449097708515408 0.8782068053643499 0 0 0
110 1 0 2.470046701982251 3.654832254993834 2.594396299387519 0 0 0
112 1 0 1.324746550717041 1.7747570440360914 1.525403784998744 0 0 0
177 1 0 3.4120881565607286 -0.01241604706858812 2.3585198756976444 0 0 0
183 1 0 5.192255514443639 0.12791368129280034 0.013976851100361287 0 0 0
191 1 0 6.1037420172208705 -0.3127797361902971 4.370909035208428 0 0 0
57 1 0 7.8603209644686665 3.855706905006458 1.8283636871406053 -1 0 0
178 1 0 4.647732415795552 1.2313130758153648 3.2539469619680697 0 0 0
180 1 0 6.389163188348364 1.176293334905802 -0.0115151893093417 0 0 0
181 1 0 4.761179478811391 3.1581826428968887 1.4486612033953543 0 0 0
182 1 0 6.774488644131376 3.205403077111418 3.013959757034576 0 0 0
184 1 0 5.422128884821609 2.597388595532183 2.6311556272419514 0 0 0
187 1 0 4.046093266223766 1.348635500506706 4.671799320574645 0 0 0
63 1 0 -3.0165086438638684 3.253512417529663 -0.954446959002639 0 0 0
23 1 0 -2.850862732403853 7.255176970846821 3.266678720080524 0 -1 0
58 1 0 -3.414633488841661 4.411885146749747 2.194587580354143 0 0 0
60 1 0 -1.0137421170380243 5.343747307235668 0.2634163228299302 0 0 0
61 1 0 -3.8950606709364317 6.560653289054689 0.39932371379895226 0 0 0
62 1 0 -1.87148809595833 6.233771417850263 2.4425987557759816 0 0 0
64 1 0 -3.186832684923086 5.9709979914961435 1.5783106537775309 0 0 0
139 1 0 -0.8169787447893881 5.185717290623221 3.113626898077454 0 0 0
87 1 0 1.6814112448768865 -4.442497733375657 -0.39428637012302836 0 0 0
143 1 0 1.5427905310421135 3.9707458011400965 3.6166734277996087 0 0 0
201 1 0 3.816918618061523 4.332309976729516 2.0046938333882203 0 0 0
203 1 0 3.7049656503885853 6.3531195587206275 -0.0727912944643192 0 0 0
130 1 0 0.7491744108503626 5.594185894296133 2.8235487020016237 0 0 0
132 1 0 2.834361454454524 5.498138691234529 0.8555374867400225 0 0 0
133 1 0 0.9363798744373035 7.634919326550029 0.8852287062024136 0 0 0
134 1 0 2.5917803243598954 7.664761060626094 3.044407427541053 0 0 0
136 1 0 1.7975676719969256 6.473490233695279 1.8986721636491035 0 0 0
95 1 0 1.9888604699054717 -4.20841812927126 4.329020504704965 0 0 0
9 1 0 8.059968643347773 -4.5264332136415 1.5492510780134845 -1 0 0
202 1 0 4.704062511514021 5.3316708602008775 2.825170453210914 0 0 0
204 1 0 6.568184485618751 4.513509147015191 1.1574132436629752 0 0 0
205 1 0 5.482228261544597 6.909193906682796 0.29287235167107184 0 0 0
206 1 0 7.39386429822131 6.347318535485935 2.452252480808558 0 0 0
208 1 0 5.88068473288134 5.950026401109045 1.7350723562634034 0 0 0
7 1 0 -1.8671005748423695 7.896392517829889 7.911400442415464 0 -1 -1
18 1 0 -3.105852808402363 -3.786211244591525 6.0837264698802 0 0 0
20 1 0 -0.7108371674905762 -3.3661365740050178 5.244637482581354 0 0 0
21 1 0 -3.30569293047248 -2.2475150954509306 4.491800854228248 0 0 0
22 1 0 -0.9685765805264888 -1.517977112335934 6.7551601274541815 0 0 0
24 1 0 -2.3094403242905446 -2.4920530882167027 5.6848960127722235 0 0 0
47 1 0 -2.0786818842083457 -0.5138748498801204 3.728985516814583 0 0 0
113 1 0 -0.16501279320504025 -0.3789065547778856 5.900363007519629 0 0 0
17 1 0 -4.529458752296482 -4.568500462279395 5.867846441130127 0 0 0
75 1 0 -0.24458630498731182 -2.1715993060229977 7.887710657677668 0 0 -1
91 1 0 -0.3339040713589556 -2.5310852824995127 4.0195241309287075 0 0 0
103 1 0 2.126185929427198 -0.17892661634483265 7.635896582758019 0 0 -1
163 1 0 3.6885085730264056 -2.314929259099752 4.151398298044076 0 0 0
90 1 0 1.3300215122091403 -3.0575319580671447 7.5876029622177645 0 0 0
92 1 0 2.9651282097037948 -3.1362381636943857 5.215776153860625 0 0 0
93 1 0 0.30332442216847255 -0.9354485764586711 4.4104766362849785 0 0 0
94 1 0 2.631491735040247 -1.080008466187023 6.375560288058819 0 0 0
96 1 0 1.9519288591119173 -2.4298112369732037 6.359318341543177 0 0 0
185 1 0 4.004905651359792 -0.5280837321306873 6.167424435437042 0 0 0
162 1 0 5.1565829985302365 -3.5996482586467877 7.269783533482776 0 0 0
164 1 0 7.099567915517804 -3.632842438008097 4.79048102551828 0 0 0
165 1 0 5.167731288264097 -1.1537473801168137 5.341570790958968 0 0 0
166 1 0 6.93434553796825 -1.399385509119686 7.357071772249854 0 0 0
168 1 0 5.831093688675336 -2.0802820363149936 6.718459085062453 0 0 0
167 1 0 5.442781877704498 -3.723570234308174 4.322580749784399 0 0 0
27 1 0 -4.337976501804393 2.244328410154658 7.777765602286656 0 0 -1
115 1 0 -0.21916494104774298 2.2642226544467485 3.4767838711817847 0 0 0
42 1 0 -4.253242040439165 0.595449742190234 7.803217156513582 0 0 0
44 1 0 -1.4780336693502112 0.6707028253116549 4.678878912738303 0 0 0
45 1 0 -3.373203211551779 2.9468724959432926 4.769030593366208 0 0 0
46 1 0 -1.4451006786827518 2.5600525398037366 6.855743553891197 0 0 0
48 1 0 -2.0247756237024164 2.2705211510413763 5.334832847828989 0 0 0
65 1 0 -3.6253042080785827 4.423755413383742 5.555508914789708 0 0 0
119 1 0 1.7271688884146839 -0.16368986598760848 4.2155909212318035 0 0 0
99 1 0 -0.180120987913015 1.9367072984187237 7.500313718526104 0 0 -1
114 1 0 0.4252122505474789 0.6522022211418088 6.799328555524057 0 0 0
116 1 0 2.2462848135726015 1.1772115768753277 4.663254433915813 0 0 0
117 1 0 0.3656122816108933 3.290538140230222 4.551461134669412 0 0 0
118 1 0 2.9942919106594994 2.5562375793020546 7.239258059185443 0 0 0
120 1 0 2.074063258955973 2.043185277253734 6.067844975215203 0 0 0
209 1 0 4.18955753081233 4.245458875949544 5.929725193816998 0 0 0
43 1 0 -4.428563491924977 1.3264392931178417 4.570075672020061 0 0 0
41 1 0 7.279679629293552 0.020767170926617062 7.022204678471215 -1 0 0
186 1 0 4.5465495407493695 0.06358806696983166 7.775159505620127 0 0 0
188 1 0 6.888124613440407 1.1183831077191178 5.05910674582844 0 0 0
189 1 0 5.120583872442905 3.433711598090791 5.061512012198221 0 0 0
190 1 0 6.858119424265631 2.609964800829708 7.396090706908246 0 0 0
192 1 0 6.446611760959064 2.66287774138401 5.676970677353599 0 0 0
199 1 0 6.142306277693333 3.275064262368822 -4.052288588610394 0 0 0
66 1 0 -3.1449487417575526 4.503613106007635 7.127361898857816 0 0 0
68 1 0 -0.8652202706830443 5.458295752250023 4.807722754659133 0 0 0
69 1 0 -3.3119149294734767 6.701501589008145 4.715598779848883 0 0 0
70 1 0 -1.3798620709053697 7.34148263509045 6.517680938992572 0 0 0
72 1 0 -1.9613032240467123 6.226229405044017 5.543877700710122 0 0 0
51 1 0 -3.5980102070990587 5.956637563106068 7.595676147524704 0 0 -1
67 1 0 7.723754861294962 6.148301655393992 4.006569799753177 -1 0 0
123 1 0 0.6050963010586079 5.344444628597883 -4.549158731673605 0 0 0
161 1 0 3.922039651698247 -4.423314014211205 6.419097006980725 0 0 0
137 1 0 -0.025895592279908897 4.490028748707103 5.618781589544386 0 0 0
89 1 0 -0.252538971423224 7.8668565329565725 5.419044051872812 0 -1 0
138 1 0 0.5438180224771996 5.57884899489154 6.492947203933443 0 0 0
140 1 0 3.1860882579976764 5.37081617511424 5.315763833146499 0 0 0
141 1 0 1.3035337146296246 7.623133879071676 5.381325589580903 0 0 0
142 1 0 3.1243176174922116 7.121983518780612 7.331220164739414 0 0 0
144 1 0 1.9332398066185705 6.229556651101878 5.861533364211964 0 0 0
211 1 0 3.982272043200682 6.283531678839963 4.043248711350825 0 0 0
195 1 0 3.7755108372010735 5.707887779506465 7.8909208409743625 0 0 -1
151 1 0 6.470821395775255 7.808973573609319 7.972225052553235 0 -1 -1
215 1 0 5.865205584011441 4.073234196009786 3.8734704250839362 0 0 0
210 1 0 4.9194996047822634 5.126145455842308 6.965001262621823 0 0 0
212 1 0 7.585842118773435 4.99288199250253 5.118457515962377 0 0 0
213 1 0 4.264963738949694 7.67834821863909 4.771766568109679 0 0 0
214 1 0 6.9490402158020945 7.010703934913491 6.726301833401117 0 0 0
216 1 0 6.599852731942974 5.251598123611873 6.549298621018685 0 0 0

Velocities

2 2.341462271105386 2.723025336195973 -0.7189316961189788
4 -0.035841104197006174 -2.3368861320771668 1.0768472087538723
5 0.08142211061307505 -0.23378726050441212 -0.5004302178768211
6 2.7676825755263614 0.794751764218315 0.8921618676787493
8 -1.233028825241973 -2.7276529318642306 -1.1284838852897172
97 -1.8299536914712935 -0.4772832441801048 0.8085665470370765
3 -0.710399938650178 0.7264277856373654 0.7005631317720863
74 0.0776683740889075 1.812061030998776 0.6361460298296333
76 1.9446408002631606 -0.2118834620993371 1.0878660794477693
77 -4.196408054019155 -0.3090976239145849 0.6233357754713212
78 -0.324177644225782 -1.438337806209654 0.025514072511171743
80 0.4035609243418136 -1.0271093892234597 1.6502829846825025
155 0.29120120709509417 -2.031145903218532 -0.5385591658291689
83 1.2005971553357635 0.5299750909846851 -0.5898831722827663
146 0.14873066736110477 0.780426310613931 4.400731173203891
148 0.204723230600038 0.020498532955159323 -0.5914924919591995
149 0.36223870621073617 -1.3079715380708883 -0.135658161172269
150 -0.9703012485012282 0.5427854233327767 1.8297229269058617
152 -0.8051203660891287 0.18842794337260269 -0.7799620165062641
175 -2.2586391181899015 0.2289874045973086 3.037435518017489
147 1.6405244888392965 -0.8652745528283933 -0.18029950455233718
31 -1.0009486272577657 -1.1390006941132746 1.1061922920334153
39 -1.5020088201197952 0.8360046116055855 -1.5169829886117785
26 -1.1131964636535578 -1.1025424455012167 -0.9645678591522123
28 -2.7966094400995765 -3.426976500370274 0.31237869392358486
29 -0.5865011590443447 -0.1414940799747007 0.4015576721596297
30 1.5508738718508377 1.3052018003609855 -1.4740676943408961
32 -2.1165982673380257 -3.4938734519918633 -1.5470017269097813
107 -0.5518307722295072 -1.7805221793522363 0.879097873023081
55 1.7585380474706138 0.7850576441468138 -2.026787749630591
121 0.585911999392226 -1.0623415522362651 -0.723523442652216
169 -1.327490450963376 -0.02318965857132086 1.833726110292702
98 -2.2153486425941615 0.7968384463657454 -1.0691043141428211
100 -0.6198226130247929 -2.6117573421682185 2.440663554863265
101 0.1965535463288027 -0.8305037930913789 -0.6622805273190112
102 -0.23324558025771328 -0.6113754681620464 -0.4957198718756961
104 -0.8956596728695123 -0.2328930808437338 0.42727123121853106
127 1.884570678877972 -1.5528992139960172 -0.11753756235662664
25 -0.23365760595455237 1.2750012832012934 -0.34174374193480167
193 1.3779018054675534 0.7317760363025954 -1.4013139365575986
170 -0.882220015631019 0.015276790669999206 -0.5256349450966731
172 -0.44788725789887723 0.10301411092679158 1.9863808828286675
173 1.8007828849691603 -1.5145272952777171 0.9188484741794677
174 -2.825824062416441 -0.6240419155542423 4.030655865767741
176 -0.9523987909922054 0.5012905913380552 -1.442932714691798
207 0.12698644744268506 0.7847935064755552 -1.1951017232082055
35 -1.0199505595195208 0.750275282873526 0.7110438319298704
171 1.2921959098037716 -0.6276154481950774 -2.0864539898159187
73 -0.6302572095058412 -3.250969553748976 -1.089162589716031
50 0.66075993692469 1.8017901207393554 -2.4217764700085382
52 0.8650547980612557 0.3988160928472411 -0.8355779096402818
53 -0.6648715148961495 -0.8981057696024565 -1.6039343082934625
54 0.1768722080320371 -0.6737997781405097 0.6284790906478767
56 1.219573185938272 -1.1005547361352477 -2.423901294723148
59 0.7508131754603954 0.6904022203493984 -2.6467039518787123
131 -0.7262105761612953 2.398217772489932 -0.9192114578922963
79 -1.6555005832717617 -2.112254717919076 -0.9767700500533468
122 1.2472327506231369 1.7668016720325204 0.2351486429652379
124 1.58466420297634 -1.096979684467711 -1.2138691345259602
125 0.8839755449045393 0.6288875787535657 0.13795974808290368
126 1.5372114271402937 -1.6833288136896596 -0.8871346610405638
128 0.4255144586071868 1.8874732176367073 0.48674071851029704
135 0.6984025911466343 -0.7166453522767112 -1.2572769164341375
145 -0.30768804931941035 -3.864650715080009 -1.5465629665626064
1 -0.5181770197990049 -1.0524761367034772 0.2023147564975499
49 0.29729276322017234 1.3601751754217746 -0.9790363082371943
194 1.1368327875002666 -0.33364570148128264 -0.6086765497717873
196 0.5190189415611848 -0.7678515080600867 1.2340925006877848
197 2.014693108530747 1.142157247840244 1.090742637261603
198 1.5242469862459602 -0.33505654662024503 -1.2131132757153837
200 1.9564837438350287 -1.1137157320132955 -0.5179229146575056
11 -0.5732734110478928 0.9636058276640097 -0.5447801929503261
10 0.17760245899453217 -2.0741195585998273 -0.3322711737320296
12 -2.167080859910512 -2.6085329424791017 2.036406501696487
13 -1.5262730707387855 0.3816077325871408 -0.9734315879786438
14 -1.0741704740527769 0.946068906404601 -1.604513243876493
16 0.7492620898585292 -1.266204306625372 1.7317768861468126
33 1.4512542569260105 -1.1961545945399434 0.5341808428581071
15 1.5577059118531622 0.6389717705772541 0.25612498004399753
82 -0.7184313314115907 3.0550840606786767 -1.7622714620362077
84 -1.9475231080089301 0.9433362175655408 0.15237463718407865
85 1.2894560216752597 -0.4992840880699862 0.0956413611464415
86 -0.6248782344196859 0.4753369300430401 1.5860493946561
88 1.0712021943823997 0.08491118094424632 -2.3932491933372986
81 1.817718243763106 1.0580411876863323 -0.22400266743361547
19 -0.07318228420295536 -0.9005027219095099 2.3773044704499706
153 -0.6200663015778247 1.27427695360744 1.9355355860186512
159 1.4086030839910515 0.6767703289614067 0.6023485656771573
154 -1.724480358144872 1.1718982934630153 0.9088229720884223
156 0.015063342123066236 -1.7301661905340113 -0.9844742310414221
157 0.26334778215802795 2.2738553010180516 0.7215705074353449
158 -0.1323757060468816 1.9464369397440788 0.5594272695069381
160 -1.015960128537864 1.4579761396924826 1.3683371658240133
105 -2.1716399906071366 -0.706517560368621 -0.33600903201908555
34 0.607311621506284 -2.3745093696625306 -1.9920928151833
36 -1.6108942774426716 -0.5122087815873138 -0.9198493093786977
37 -0.5053819774633832 -1.0370077700065914 -1.7035445731327554
38 -2.283157535537702 -0.9504057168595094 -0.40520722411633975
40 -0.21667707968546013 -1.2933431418416623 -2.0749986659589528
71 0.5228452469816502 -1.485110250887048 -0.6877845107420908
179 0.4001076584547269 3.3865483371608907 0.7422045754320058
111 2.2405593576313287 -0.8045415477308109 1.5700433722065315
129 -1.0378215382542006 -3.6596454789708317 0.4477168346229503
106 2.560713218588104 1.582956213663112 2.5233786251074655
108 -1.752787032797083 -1.1947184966816424 2.282546487800391
109 -1.4082681297526638 -1.7687744866033888 1.0379583991444228
110 -0.6783214270271439 3.006339753230533 -0.25524902652732906
112 -1.962143674415934 -2.1884330913873398 -2.7936589978555264
177 -1.1183202513710522 0.6037580087402112 1.5622947039572597
183 -0.5114121115657638 -0.9436729099591673 0.02868890107779786
191 1.4967687140047397 -1.0990312191189704 3.812103443827699
57 -2.397758559526785 -0.5645252119960774 1.106637304123271
178 -1.275957522190668 3.104894505244484 1.1739841881067292
180 -0.19642271332185826 2.5870472113453853 -1.8760257329147025
181 -1.0871161334860509 -0.7970053810374292 5.05162411454982
182 -1.273099869133529 2.397207504289504 -0.08834472373661326
184 -1.1560999014529576 0.7099757280224092 0.6957554597878921
187 0.14224023539465602 -2.179830583268898 1.636755576104458
63 -0.8250750149209437 -2.5555645762035066 -0.2826210455484012
23 -1.1895814413789232 -1.836480125675386 -2.0163509217720033
58 0.7683405360501793 -1.24564822764724 -1.7666720018132946
60 2.024693957949159 2.248516825081464 -0.8480385852360615
61 -0.7517274370481821 -2.6068380308695507 -1.2544681638826343
62 0.3604335346496354 -1.6601866194937525 0.2471165989639442
64 -2.0509289686873755 -0.6185461693043399 2.5566319646827393
139 -0.46978290379879456 0.2310900324268634 1.4641616160270148
87 -1.621834266837932 1.7686213885072724 0.5486830274546486
143 -2.228499566621002 -0.9332199202853573 -1.4368181044808435
201 -0.42079081273541463 2.0287143124640723 0.2230452739025697
203 -0.993536920044275 1.5847920282543662 0.07892888164915748
130 -0.46602206475891855 1.2559161953033116 -1.8564756281680463
132 -0.7826306881699057 2.0993898902379398 -0.6141615608472506
133 -0.7208802814519629 1.3897067973481343 0.44785781715820866
134 -2.7727147929870903 3.1121882178553193 -0.05799361319830545
136 0.32244703126655705 1.2465377741877601 0.3310111538716715
95 1.919192056062034 0.692952117409227 2.4864048897158195
9 1.157425338706332 1.3657102377929788 -1.675228355799768
202 0.14748442188584668 0.6358681287456773 -0.4886902501165593
204 -1.4011440220816274 -1.0213090233161874 0.16715231178145526
205 0.8900382606805721 1.1359486314886014 -1.234690275078692
206 0.01066610932934808 -1.7740386403962491 -0.5081717852191723
208 0.618913163324884 -0.5826939432803454 0.7816533517210118
7 2.4593854744166386 -2.398379465103805 1.1076834771741133
18 -0.5629451699850655 0.5285817768987466 -3.8104224833461133
20 1.3374912948468878 0.5532950940567983 0.6883340027179868
21 -1.1156248145281475 -0.8105158596656837 1.0032932329227884
22 2.453606120890782 -0.2545406442854651 -0.19695868401584332
24 0.07213370657398116 -0.8490658983371026 -0.5551791712786818
47 2.377135194461861 0.04372665155619982 -1.0665362009711286
113 -0.6828385094539178 -1.468251831153505 0.07921038741041385
17 -0.5158642631029597 -0.03518143488764302 -0.1450802282639284
75 1.0381001887383874 1.2234921607426892 -1.5639253971699274
91 0.30852961398875783 -0.9033676282946453 1.8813283960088747
103 1.6007023220086782 1.4650599015606502 -0.599598847471674
163 -2.2158645665437784 0.18173875585230873 -1.0083850616687062
90 0.6835428667784409 0.18345060976730232 -0.06870487356533962
92 -0.9076971273246592 1.4985221971276081 0.027824306384758718
93 -0.8108341251975403 1.8968468381168735 -2.1698000469545953
94 0.1498404856501066 0.40848884830485244 0.344997010577394
96 2.6523900541407905 -0.060042940791435996 0.8328222808748668
185 0.7493446950985846 -0.9492004073582354 1.591952135891451
162 0.44153923624870134 0.6016577692850699 0.5865544196775204
164 -0.24965661323532082 -0.5867001380771972 -0.690339188263419
165 1.85767091397952 1.4013637421979408 1.6883031517624207
166 1.0330956613890938 -0.894257702245214 0.5112976939020905
168 -1.2595189604912098 -0.1289911037437895 2.401686785555018
167 -0.4641631631156756 1.8295197117833022 1.8367948771722344
27 -2.1343541392801133 -1.839846527643251 1.1035523839439314
115 1.0685325821954572 3.2685205597920484 -1.6743312874920715
42 -3.845089030011414 1.4945222156305784 0.20854770282234364
44 -2.445989141077487 -0.08802605536873614 -0.7208025490844407
45 0.8038525356484495 1.848311751920383 -0.9714486452503623
46 -0.9575327857599236 -0.6961809674456882 -0.9156019036490738
48 -0.5116883640398097 0.9126380455648465 -0.5371845262412175
65 2.0065518138962015 -0.2981056038909191 -1.6781141200212453
119 -0.35617447606110303 0.968073099958073 0.16695764050566342
99 0.811799641637378 0.8757137655002957 -1.541856903912363
114 -1.7186768079141517 -1.413126793209265 -1.9174486164789009
116 -2.9966337133490635 0.7370229309268862 -1.1329576710989882
117 -1.3756621813314756 2.4376093145190763 -2.868764333527054
118 -0.6768712023486732 -1.943775625964196 2.5197800821978733
120 2.7831176126687405 0.509218931197023 1.0676359562004871
209 1.6623979030041922 2.425981821533272 -1.4239133056821325
43 0.7128072949176085 -1.543116061943108 3.9114615378360593
41 0.2442915963701692 -1.0347507077973601 2.7145456329659416
186 -0.5676871814658859 -1.1220061554339802 1.654130923861819
188 -1.1682258349407266 1.7159950926907752 -1.1851487102975122
189 2.441852947011002 2.6551933447089717 1.5560825519985906
190 0.2745862172876756 -0.4166806884007453 0.08494496472221238
192 0.9799747941106941 1.1486324526618836 0.9391361124586525
199 0.5080195940831304 -2.2557694077028985 3.00498532422291
66 0.3076673096829567 -1.3485208188222433 0.8605878009017128
68 0.02178221276267742 0.8156425492633019 -1.3078405446480785
69 2.096105921014784 -1.7746405570240078 -2.3677340654534578
70 0.058132263760906105 0.3128876477332085 -0.8692344888447856
72 0.7393413432367196 -0.10206554450412349 -1.9323629056016491
51 5.74356683213425 0.7828971254705525 -0.36139432370063423
67 -1.9943458129712917 1.2260706572936457 2.3304679448530403
123 2.6157424084050223 -2.0452134917414906 -2.224465414980356
161 0.7450681240439602 0.12888828386700213 0.09403573416371198
137 0.7247020835345416 3.51972192574697 -2.5078540723053546
89 0.04438332352339513 1.39113751759429 -0.9905415426467791
138 1.09774214758022 0.6942928641460668 1.466841122350577
140 1.9081016110935867 3.3149450031025336 2.8487901654769465
141 0.8730891199889127 0.10453250922846005 -1.1029413422852619
142 1.7390576518008471 0.9630078147331661 0.4127431580393663
144 -0.3679511010747189 -0.8420217608505342 -1.0267038595068083
211 1.1627666885893964 0.34287874717554734 0.3533449811376232
195 -1.7358122303295644 -2.2391348803845865 -0.8462302875379666
151 1.7384366170923977 -0.4444053347466411 -0.2092274573729879
215 0.5446533047199211 -0.4287794111595077 -1.6553281790001182
210 1.077268074600052 0.5216586111965107 -1.049527973600294
212 1.7838648256235539 1.4504823854881415 0.7928168928186509
213 -1.9258605654918097 1.0181957248775164 -0.03533108734529932
214 -2.0106611929214804 -0.27563806911834515 -0.7687821037458159
216 1.2363127817696051 -0.32825593425516486 1.2085302425381301
