ITEM: TIMESTEP
910
ITEM: NUMBER OF ATOMS
216
ITEM: BOX BOUNDS pp pp pp
-4.0425137953259354e+00 7.6032589053259372e+00
-4.0425137900868311e+00 7.6032589000868285e+00
-4.0425137953480990e+00 7.6032589053480981e+00
ITEM: ATOMS type x y z
1 -4.04243 -4.04229 -2.10172
1 -3.07211 -3.0719 -1.13118
1 -4.04254 -2.10156 -4.04263
1 -1.13114 -3.07208 -3.07197
1 -3.07204 -1.13103 -3.07189
1 -1.13128 -1.13129 -1.13107
1 -2.10158 -4.04241 -4.04264
1 -2.10158 -2.10144 -2.1013
1 -4.04229 -2.10181 -0.160413
1 -2.10164 -4.04217 -0.160735
1 -4.04251 -0.160638 -2.10166
1 -2.10155 -0.160659 -4.04241
1 -2.10125 -0.160586 -0.160324
1 -0.160707 -4.04262 -2.10127
1 -0.160707 -2.10154 -4.04214
1 -0.160497 -2.10152 -0.160628
1 -0.16063 -0.160691 -2.10175
1 0.809947 -3.07202 -1.13089
1 2.75074 -3.072 -3.07208
1 0.810014 -1.13092 -3.07185
1 2.75114 -1.13112 -1.13129
1 1.7805 -4.04267 -4.04278
1 1.78026 -2.1013 -2.1016
1 1.78034 -4.04255 -0.160291
1 1.78053 -0.160838 -4.04252
1 1.78059 -0.160381 -0.160603
1 3.72139 -4.04255 -2.1016
1 3.72115 -2.10153 -4.04259
1 3.72121 -2.10136 -0.160724
1 3.72152 -0.160866 -2.10147
1 4.69189 -3.07217 -1.13084
1 6.63291 -3.07204 -3.07202
1 4.6921 -1.13093 -3.07208
1 6.63272 -1.13096 -1.13087
1 5.66246 -4.04246 -4.04245
1 5.66208 -2.1015 -2.10165
1 5.6624 -4.04254 -0.160588
1 5.66196 -0.160548 -4.04271
1 5.66216 -0.160674 -0.160529
1 -3.07169 0.809808 -1.13104
1 -4.04253 1.78039 -4.04241
1 -1.13093 0.809927 -3.07196
1 -3.07216 2.75079 -3.07217
1 -1.13133 2.75099 -1.13118
1 -2.1014 1.78057 -2.10172
1 -4.04267 1.78021 -0.160525
1 -4.0426 3.72149 -2.10151
1 -2.10175 3.72139 -4.04237
1 -2.10159 3.72115 -0.160692
1 -0.160565 1.78015 -4.04242
1 -0.160741 1.7801 -0.160591
1 -0.160603 3.72119 -2.10154
1 0.809891 0.809632 -1.13078
1 2.7506 0.809775 -3.07217
1 0.809721 2.75101 -3.07197
1 2.75068 2.75076 -1.13128
1 1.78034 1.78028 -2.10148
1 1.78021 3.72139 -4.04252
1 1.78051 3.72127 -0.160433
1 3.72117 1.78038 -4.04256
1 3.72141 1.78027 -0.160607
1 3.72139 3.72143 -2.10149
1 4.69172 0.809981 -1.13131
1 6.63237 0.809809 -3.07205
1 4.69203 2.75078 -3.07213
1 6.63276 2.75077 -1.13125
1 5.6623 1.78065 -2.10128
1 5.66242 3.72126 -4.04254
1 5.66225 3.72105 -0.160585
1 -3.07196 4.69179 -1.13093
1 -4.04266 5.66236 -4.04237
1 -1.13104 4.69208 -3.07207
1 -3.07219 6.63265 -3.07201
1 -1.13095 6.63308 -1.13105
1 -2.10168 5.66232 -2.10165
1 -4.04231 5.6623 -0.160776
1 -0.160327 5.66211 -4.04266
1 -0.160875 5.66213 -0.160641
1 0.80987 4.69201 -1.13113
1 2.75061 4.6918 -3.07213
1 0.809737 6.6328 -3.07203
1 2.75086 6.63306 -1.13114
1 1.78049 5.66214 -2.10149
1 3.72132 5.66206 -4.04232
1 3.72169 5.66227 -0.160622
1 4.69204 4.69165 -1.1311
1 6.63269 4.69196 -3.07195
1 4.69175 6.63278 -3.07186
1 6.63275 6.63299 -1.13113
1 5.66234 5.66241 -2.10157
1 -4.04261 -4.0426 1.78065
1 -3.07198 -3.07203 2.75123
1 -1.1312 -3.07202 0.809721
1 -3.072 -1.13117 0.809964
1 -1.13121 -1.13109 2.75092
1 -2.10152 -2.10158 1.78019
1 -4.04274 -2.10166 3.72159
1 -2.10167 -4.04272 3.72148
1 -4.04246 -0.160477 1.78033
1 -2.10143 -0.160989 3.72109
1 -0.160675 -4.04227 1.78034
1 -0.16036 -2.10179 3.72117
1 -0.160742 -0.160477 1.78012
1 0.809578 -3.07211 2.75091
1 2.75079 -3.07191 0.809975
1 0.809692 -1.13139 0.809927
1 2.75108 -1.13076 2.75078
1 1.78047 -2.10172 1.78019
1 1.78024 -4.04238 3.72137
1 1.78038 -0.160718 3.72122
1 3.72153 -4.04241 1.78064
1 3.72135 -2.10156 3.72132
1 3.72126 -0.160751 1.78043
1 4.69185 -3.07212 2.7509
1 6.63306 -3.07223 0.809761
1 4.69199 -1.13131 0.809712
1 6.63293 -1.13097 2.75067
1 5.6624 -2.10148 1.78038
1 5.66211 -4.04245 3.7212
1 5.66249 -0.160542 3.72134
1 -3.07197 0.809882 2.75101
1 -1.13088 0.809904 0.810038
1 -3.07192 2.75088 0.809857
1 -1.13102 2.75097 2.75102
1 -2.10159 1.78031 1.78024
1 -4.04255 1.7803 3.72118
1 -4.0422 3.72131 1.7805
1 -2.10158 3.72159 3.72128
1 -0.160603 1.78055 3.72114
1 -0.160534 3.72132 1.78029
1 0.809691 0.809766 2.75072
1 2.7509 0.809958 0.809982
1 0.809896 2.75116 0.809698
1 2.75099 2.75089 2.75097
1 1.78041 1.78026 1.78038
1 1.78024 3.7215 3.7215
1 3.72122 1.78056 3.72151
1 3.72141 3.72149 1.78028
1 4.69178 0.809781 2.75095
1 6.63261 0.809856 0.809606
1 4.69199 2.751 0.809822
1 6.63285 2.75078 2.75086
1 5.66253 1.78053 1.78046
1 5.66227 3.72145 3.72121
1 -3.07193 4.69197 2.75085
1 -1.1312 4.6918 0.809823
1 -3.07172 6.63285 0.809779
1 -1.13098 6.63274 2.75113
1 -2.1015 5.66226 1.78041
1 -4.04238 5.6622 3.72145
1 -0.160592 5.66217 3.7214
1 0.80951 4.69198 2.75061
1 2.75077 4.69151 0.809776
1 0.809995 6.6327 0.809947
1 2.75121 6.63279 2.75053
1 1.78046 5.66217 1.78021
1 3.72149 5.66223 3.72157
1 4.69167 4.69203 2.75093
1 6.63279 4.69186 0.810288
1 4.69195 6.63302 0.809969
1 6.63276 6.63268 2.75074
1 5.66238 5.66232 1.7802
1 -4.04261 -4.04263 5.66217
1 -3.072 -3.07194 6.63302
1 -1.13124 -3.07175 4.69182
1 -3.07218 -1.13096 4.6917
1 -1.13133 -1.13103 6.63299
1 -2.10175 -2.10157 5.66212
1 -4.04236 -0.16073 5.66245
1 -0.160651 -4.04248 5.66226
1 -0.160597 -0.1604 5.66216
1 0.809722 -3.07181 6.633
1 2.75057 -3.07213 4.69179
1 0.809918 -1.13098 4.69184
1 2.75071 -1.13087 6.63263
1 1.78025 -2.10183 5.66222
1 3.72159 -4.04242 5.6623
1 3.7214 -0.16063 5.66245
1 4.69191 -3.07176 6.63293
1 6.63333 -3.07206 4.69203
1 4.6919 -1.13102 4.69191
1 6.63275 -1.13111 6.6324
1 5.66215 -2.10171 5.6623
1 -3.07168 0.80977 6.6327
1 -1.13088 0.809579 4.69185
1 -3.07207 2.75098 4.69172
1 -1.13111 2.75091 6.63291
1 -2.10147 1.78068 5.66243
1 -4.04254 3.72128 5.66245
1 -0.160704 3.72124 5.66232
1 0.810148 0.809959 6.63286
1 2.75077 0.809712 4.69161
1 0.809879 2.75081 4.6918
1 2.75082 2.75087 6.63282
1 1.78019 1.78039 5.66211
1 3.72133 3.7211 5.66239
1 4.69174 0.809784 6.6327
1 6.63294 0.809845 4.692
1 4.69183 2.75099 4.69165
1 6.63289 2.75099 6.63272
1 5.66212 1.78037 5.66227
1 -3.07208 4.69196 6.63271
1 -1.13141 4.69184 4.69189
1 -3.07223 6.63304 4.69172
1 -1.13103 6.63258 6.63245
1 -2.10135 5.66249 5.66224
1 0.809972 4.69187 6.6328
1 2.75083 4.69163 4.69191
1 0.809907 6.63264 4.69188
1 2.75083 6.63281 6.63287
1 1.78003 5.66231 5.66239
1 4.69199 4.69201 6.63265
1 6.63268 4.69162 4.69155
1 4.69173 6.63265 4.69188
1 6.63255 6.63254 6.63281
1 5.66228 5.66219 5.66228
ITEM: TIMESTEP
920
ITEM: NUMBER OF ATOMS
216
ITEM: BOX BOUNDS pp pp pp
-4.0425137953259354e+00 7.6032589053259372e+00
-4.0425137900868311e+00 7.6032589000868285e+00
-4.0425137953480990e+00 7.6032589053480981e+00
ITEM: ATOMS type x y z
1 -4.04231 -4.04196 -2.10196
1 -3.07222 -3.07171 -1.13134
1 -4.04257 -2.10157 -4.04281
1 -1.13124 -3.07215 -3.07189
1 -3.07206 -1.13098 -3.07169
1 -1.13157 -1.13159 -1.13106
1 -2.10161 -4.04227 -4.04282
1 -2.10163 -2.10127 -2.10094
1 -4.04198 -2.10216 -0.160166
1 -2.10177 -4.04168 -0.160941
1 -4.0425 -0.160703 -2.10182
1 -2.10154 -0.160758 -4.04227
1 -2.10083 -0.160581 -0.159955
1 -0.160868 -4.04277 -2.10087
1 -0.160874 -2.10151 -4.04162
1 -0.160365 -2.10146 -0.160686
1 -0.160689 -0.160833 -2.10202
1 0.810027 -3.072 -1.13064
1 2.75057 -3.07196 -3.07216
1 0.810184 -1.13071 -3.07158
1 2.75155 -1.13118 -1.13161
1 1.78068 -4.0429 -4.04315
1 1.7801 -2.10097 -2.10166
1 1.7803 -4.04261 -0.159872
1 1.78076 -0.161187 -4.04252
1 1.7809 -0.160093 -0.160619
1 3.72146 -4.04258 -2.10167
1 3.72089 -2.1015 -4.04271
1 3.72104 -2.1011 -0.160912
1 3.72179 -0.161248 -2.10136
1 4.692 -3.07236 -1.13051
1 6.6331 -3.07205 -3.072
1 4.69249 -1.13074 -3.07215
1 6.63265 -1.1308 -1.13058
1 5.66269 -4.04238 -4.04235
1 5.66178 -2.10143 -2.10178
1 5.66254 -4.04258 -0.160584
1 5.66149 -0.160489 -4.043
1 5.66196 -0.160793 -0.160447
1 -3.07121 0.809691 -1.131
1 -4.04257 1.7804 -4.04227
1 -1.13072 0.809977 -3.07185
1 -3.07235 2.7507 -3.07237
1 -1.13169 2.75119 -1.13134
1 -2.10119 1.78086 -2.10195
1 -4.04288 1.77999 -0.160439
1 -4.04271 3.72172 -2.10144
1 -2.10203 3.72147 -4.04217
1 -2.10164 3.7209 -0.160836
1 -0.160525 1.77984 -4.04228
1 -0.160952 1.77971 -0.160595
1 -0.160622 3.721 -2.10151
1 0.809887 0.809264 -1.13037
1 2.75024 0.809611 -3.07235
1 0.809477 2.75122 -3.07187
1 2.75043 2.75062 -1.13157
1 1.7803 1.78016 -2.10139
1 1.77998 3.72147 -4.04252
1 1.7807 3.72118 -0.16022
1 3.72095 1.7804 -4.04262
1 3.72152 1.78013 -0.160631
1 3.72146 3.72156 -2.10141
1 4.69159 0.810109 -1.13165
1 6.6318 0.809692 -3.07207
1 4.69232 2.75067 -3.07227
1 6.63275 2.75066 -1.13149
1 5.66229 1.78105 -2.1009
1 5.66259 3.72115 -4.04258
1 5.66219 3.72065 -0.160575
1 -3.07185 4.69175 -1.13074
1 -4.04287 5.66245 -4.04217
1 -1.13101 4.69245 -3.07213
1 -3.0724 6.63248 -3.07198
1 -1.13078 6.6335 -1.13101
1 -2.10185 5.66236 -2.1018
1 -4.04203 5.66231 -0.161036
1 -0.159961 5.66185 -4.04287
1 -0.161277 5.66189 -0.160713
1 0.809839 4.69228 -1.1312
1 2.75027 4.69177 -3.07225
1 0.80952 6.63284 -3.07202
1 2.75088 6.63345 -1.13124
1 1.78065 5.66193 -2.10139
1 3.72129 5.66172 -4.04204
1 3.72219 5.66225 -0.160667
1 4.69236 4.69143 -1.13114
1 6.63257 4.69217 -3.07183
1 4.69165 6.63278 -3.07161
1 6.63272 6.63328 -1.13122
1 5.6624 5.66256 -2.10159
1 -4.04273 -4.04271 1.78104
1 -3.0719 -3.07204 2.75176
1 -1.13138 -3.07199 0.809482
1 -3.07196 -1.1313 0.810069
1 -1.1314 -1.13113 2.751
1 -2.10148 -2.10163 1.77994
1 -4.04306 -2.10182 3.72195
1 -2.10184 -4.04302 3.72167
1 -4.04237 -0.160321 1.78026
1 -2.10127 -0.161549 3.72076
1 -0.160799 -4.04194 1.78029
1 -0.160041 -2.10211 3.72094
1 -0.160951 -0.160326 1.77976
1 0.809141 -3.07222 2.75098
1 2.75069 -3.07174 0.810096
1 0.809416 -1.13184 0.809977
1 2.75139 -1.13033 2.75068
1 1.7806 -2.10195 1.77994
1 1.78005 -4.0422 3.72142
1 1.78039 -0.160899 3.72107
1 3.7218 -4.04227 1.781
1 3.72136 -2.10156 3.7213
1 3.72116 -0.160975 1.7805
1 4.6919 -3.07223 2.75097
1 6.63347 -3.07251 0.809583
1 4.69224 -1.13165 0.809461
1 6.63314 -1.13083 2.75041
1 5.66255 -2.10137 1.78039
1 5.66185 -4.04237 3.72102
1 5.66275 -0.160475 3.72134
1 -3.07187 0.809871 2.75121
1 -1.13062 0.809924 0.810245
1 -3.07177 2.75092 0.809809
1 -1.13094 2.75114 2.75126
1 -2.10165 1.78024 1.78005
1 -4.04259 1.78021 3.72098
1 -4.04176 3.72128 1.78067
1 -2.10163 3.72195 3.7212
1 -0.160627 1.7808 3.72088
1 -0.16046 3.7213 1.78017
1 0.80941 0.80959 2.75053
1 2.75097 0.810053 0.810109
1 0.809898 2.75159 0.809425
1 2.75118 2.75093 2.75113
1 1.78046 1.7801 1.78038
1 1.78006 3.72174 3.72173
1 3.72107 1.78082 3.72175
1 3.72151 3.7217 1.78015
1 4.69173 0.809627 2.75108
1 6.63237 0.809807 0.809206
1 4.69224 2.75121 0.809726
1 6.63294 2.75068 2.75086
1 5.66286 1.78075 1.78059
1 5.66223 3.72161 3.72102
1 -3.07179 4.69218 2.75084
1 -1.13139 4.69178 0.809726
1 -3.07127 6.63295 0.809621
1 -1.13086 6.6327 2.75151
1 -2.10141 5.66222 1.78047
1 -4.04221 5.66207 3.72162
1 -0.160596 5.66199 3.7215
1 0.808977 4.6922 2.75027
1 2.75066 4.69109 0.809608
1 0.810137 6.63258 0.810028
1 2.7517 6.63281 2.75009
1 1.78059 5.662 1.77999
1 3.72169 5.66214 3.7219
1 4.69147 4.69233 2.75103
1 6.6328 4.69191 0.81084
1 4.69214 6.63335 0.810074
1 6.63273 6.63255 2.75059
1 5.66249 5.66234 1.77996
1 -4.04276 -4.04279 5.66201
1 -3.07195 -3.07182 6.63335
1 -1.13149 -3.07134 4.69184
1 -3.07238 -1.13081 4.69154
1 -1.13168 -1.13098 6.6333
1 -2.10203 -2.1016 5.66187
1 -4.04215 -0.160924 5.66267
1 -0.16074 -4.04243 5.6622
1 -0.160608 -0.160139 5.66197
1 0.809477 -3.0715 6.63331
1 2.75018 -3.07227 4.69175
1 0.809955 -1.13085 4.69187
1 2.75052 -1.1306 6.63242
1 1.78007 -2.10221 5.6621
1 3.72195 -4.04229 5.66232
1 3.7215 -0.160688 5.66266
1 4.69203 -3.07137 6.63315
1 6.63409 -3.0721 4.69232
1 4.69202 -1.13095 4.69205
1 6.63272 -1.13116 6.63188
1 5.66195 -2.10192 5.6623
1 -3.0712 0.809602 6.63258
1 -1.13062 0.809145 4.6919
1 -3.07212 2.75116 4.69158
1 -1.13116 2.75099 6.63309
1 -2.10136 1.7811 5.66262
1 -4.04257 3.72121 5.66267
1 -0.160868 3.72111 5.66235
1 0.810507 0.810054 6.63299
1 2.75066 0.809462 4.69131
1 0.809858 2.75075 4.69177
1 2.75076 2.7509 6.63289
1 1.77993 1.78041 5.66185
1 3.72132 3.72078 5.66252
1 4.69163 0.809639 6.63259
1 6.63318 0.809783 4.69225
1 4.69185 2.75117 4.69142
1 6.63305 2.75118 6.63265
1 5.66187 1.78037 5.66222
1 -3.07214 4.69218 6.63261
1 -1.13189 4.69186 4.69199
1 -3.0725 6.6334 4.6916
1 -1.13097 6.6323 6.63198
1 -2.10108 5.66277 5.66215
1 0.810082 4.69193 6.63283
1 2.75079 4.69136 4.69204
1 0.80993 6.63244 4.69196
1 2.75079 6.63285 6.633
1 1.77957 5.66233 5.66251
1 4.69223 4.69228 6.63246
1 6.63254 4.69135 4.69117
1 4.69162 6.63247 4.69196
1 6.63223 6.6322 6.63285
1 5.66227 5.66204 5.66224
ITEM: TIMESTEP
930
ITEM: NUMBER OF ATOMS
216
ITEM: BOX BOUNDS pp pp pp
-4.0425137953259354e+00 7.6032589053259372e+00
-4.0425137900868311e+00 7.6032589000868285e+00
-4.0425137953480990e+00 7.6032589053480981e+00
ITEM: ATOMS type x y z
1 -4.04219 -4.04165 -2.10219
1 -3.07233 -3.07153 -1.1315
1 -4.04261 -2.10156 -4.04297
1 -1.13133 -3.07223 -3.0718
1 -3.07208 -1.13093 -3.07149
1 -1.13185 -1.13187 -1.13106
1 -2.10164 -4.04215 -4.043
1 -2.10167 -2.10112 -2.10059
1 -4.0417 -2.10249 -0.159933
1 -2.1019 -4.04123 -0.161139
1 -4.0425 -0.160761 -2.10196
1 -2.10153 -0.160854 -4.04213
1 -2.10044 -0.160578 -0.159607
1 -0.161008 -4.04291 -2.10049
1 -0.16104 -2.10149 -4.04111
1 -0.160232 -2.10141 -0.16075
1 -0.160749 -0.160971 -2.10227
1 0.810111 -3.07197 -1.13041
1 2.75042 -3.0719 -3.07224
1 0.810339 -1.13051 -3.07133
1 2.75194 -1.13124 -1.1319
1 1.78084 -4.04311 -4.04349
1 1.77995 -2.10066 -2.10172
1 1.78027 -4.04267 -0.159473
1 1.78097 -0.16152 -4.04254
1 1.7812 -0.15983 -0.16063
1 3.72152 -4.04261 -2.10173
1 3.72064 -2.10147 -4.04281
1 3.72088 -2.10086 -0.16109
1 3.72205 -0.161597 -2.10127
1 4.6921 -3.07253 -1.1302
1 6.63327 -3.07205 -3.07198
1 4.69286 -1.13056 -3.07223
1 6.63258 -1.13066 -1.1303
1 5.6629 -4.0423 -4.04225
1 5.66151 -2.10136 -2.1019
1 5.66268 -4.0426 -0.16058
1 5.66105 -0.160429 -4.04327
1 5.66177 -0.16091 -0.160372
1 -3.07074 0.809582 -1.13095
1 -4.04261 1.7804 -4.04213
1 -1.13052 0.810023 -3.07175
1 -3.07255 2.75062 -3.07255
1 -1.13203 2.75137 -1.13149
1 -2.101 1.78112 -2.10217
1 -4.04307 1.77977 -0.160373
1 -4.04283 3.72193 -2.10137
1 -2.1023 3.72156 -4.04198
1 -2.10168 3.72065 -0.160974
1 -0.160476 1.77955 -4.04215
1 -0.16115 1.77936 -0.160608
1 -0.160641 3.72082 -2.10149
1 0.809874 0.808904 -1.12998
1 2.7499 0.809452 -3.07252
1 0.809236 2.75143 -3.07177
1 2.7502 2.75049 -1.13186
1 1.78025 1.78003 -2.1013
1 1.77975 3.72153 -4.04253
1 1.78087 3.72109 -0.160029
1 3.72072 1.78041 -4.04266
1 3.72163 1.77999 -0.160651
1 3.72153 3.72167 -2.10134
1 4.69144 0.810234 -1.13196
1 6.63126 0.809579 -3.0721
1 4.69259 2.75058 -3.07242
1 6.63275 2.75056 -1.13172
1 5.66229 1.78141 -2.10054
1 5.66276 3.72105 -4.04261
1 5.66216 3.72028 -0.160558
1 -3.07176 4.69171 -1.13056
1 -4.04307 5.66254 -4.04198
1 -1.13098 4.69281 -3.07218
1 -3.07261 6.63232 -3.07196
1 -1.13064 6.6339 -1.13097
1 -2.10201 5.66241 -2.10194
1 -4.04177 5.66232 -0.16128
1 -0.159617 5.6616 -4.04306
1 -0.161668 5.66167 -0.16078
1 0.809807 4.69255 -1.13128
1 2.74995 4.69174 -3.07237
1 0.809312 6.63288 -3.07202
1 2.7509 6.63382 -1.13133
1 1.78079 5.66174 -2.1013
1 3.72127 5.6614 -4.04178
1 3.72268 5.66223 -0.160709
1 4.69267 4.69122 -1.13117
1 6.63245 4.69237 -3.07171
1 4.69155 6.63278 -3.07138
1 6.63271 6.63356 -1.13131
1 5.66246 5.66271 -2.1016
1 -4.04284 -4.04283 1.78142
1 -3.07182 -3.07204 2.75227
1 -1.13156 -3.07197 0.809256
1 -3.07192 -1.13143 0.810176
1 -1.13158 -1.13118 2.75106
1 -2.10144 -2.10169 1.77972
1 -4.04336 -2.10196 3.72229
1 -2.10199 -4.04329 3.72186
1 -4.04229 -0.160173 1.78019
1 -2.10111 -0.162086 3.72044
1 -0.160932 -4.04164 1.78023
1 -0.159742 -2.10241 3.72072
1 -0.161141 -0.160198 1.77943
1 0.808732 -3.07233 2.75105
1 2.75061 -3.07156 0.810218
1 0.809162 -1.13227 0.810024
1 2.75168 -1.12993 2.75058
1 1.78072 -2.10216 1.7797
1 1.77988 -4.04206 3.72145
1 1.78039 -0.161078 3.72091
1 3.72205 -4.04213 1.78134
1 3.72137 -2.10156 3.7213
1 3.72109 -0.161183 1.78057
1 4.69197 -3.07232 2.75106
1 6.63387 -3.07279 0.809427
1 4.69247 -1.13197 0.809226
1 6.63334 -1.13069 2.75015
1 5.6627 -2.10127 1.7804
1 5.66161 -4.0423 3.72086
1 5.66301 -0.160407 3.72135
1 -3.07177 0.809865 2.75141
1 -1.13037 0.809953 0.810446
1 -3.07163 2.75095 0.809765
1 -1.13087 2.75129 2.75148
1 -2.1017 1.78017 1.77988
1 -4.04261 1.78011 3.7208
1 -4.04134 3.72126 1.78083
1 -2.10168 3.7223 3.72113
1 -0.16066 1.78103 3.72061
1 -0.160395 3.72128 1.78005
1 0.809137 0.809424 2.75034
1 2.75104 0.810145 0.810227
1 0.809894 2.75199 0.80916
1 2.75136 2.75099 2.75128
1 1.78051 1.77996 1.7804
1 1.77989 3.72198 3.72194
1 3.72092 1.78106 3.72198
1 3.72161 3.7219 1.78004
1 4.6917 0.809488 2.75121
1 6.63215 0.809765 0.808826
1 4.69248 2.7514 0.809638
1 6.63304 2.75058 2.75086
1 5.66315 1.78095 1.78072
1 5.66219 3.72177 3.72084
1 -3.07164 4.6924 2.75083
1 -1.13158 4.69175 0.809628
1 -3.07084 6.63305 0.809469
1 -1.13073 6.63266 2.75188
1 -2.10132 5.66219 1.78052
1 -4.04205 5.66193 3.72178
1 -0.1606 5.66181 3.72159
1 0.808473 4.69242 2.74995
1 2.75058 4.69069 0.809435
1 0.810264 6.63246 0.81011
1 2.75217 6.63282 2.74967
1 1.78072 5.66184 1.77978
1 3.72187 5.66205 3.72223
1 4.69128 4.69262 2.75111
1 6.63283 4.69196 0.811359
1 4.69231 6.63367 0.810167
1 6.6327 6.63243 2.75045
1 5.6626 5.66236 1.77973
1 -4.0429 -4.04296 5.66187
1 -3.07191 -3.07171 6.63367
1 -1.13171 -3.07095 4.69186
1 -3.07257 -1.13067 4.69139
1 -1.13202 -1.13094 6.63359
1 -2.10229 -2.10161 5.66163
1 -4.04193 -0.161099 5.66287
1 -0.160833 -4.04237 5.66214
1 -0.160616 -0.1599 5.6618
1 0.809227 -3.0712 6.63361
1 2.7498 -3.0724 4.69171
1 0.809989 -1.13073 4.6919
1 2.75033 -1.13035 6.63221
1 1.77989 -2.10256 5.662
1 3.72229 -4.04217 5.66234
1 3.72157 -0.160743 5.66284
1 4.69215 -3.07101 6.63337
1 6.6348 -3.07215 4.69261
1 4.69213 -1.1309 4.69217
1 6.6327 -1.13121 6.63139
1 5.66176 -2.10213 5.6623
1 -3.07073 0.809448 6.63248
1 -1.13037 0.80874 4.69194
1 -3.07217 2.75132 4.69145
1 -1.1312 2.75107 6.63327
1 -2.10126 1.7815 5.66278
1 -4.04259 3.72115 5.66287
1 -0.161035 3.72098 5.66239
1 0.81085 0.810146 6.6331
1 2.75056 0.809226 4.69104
1 0.80983 2.75071 4.69174
1 2.75071 2.75092 6.63295
1 1.77968 1.78042 5.6616
1 3.72132 3.72048 5.66266
1 4.69152 0.809516 6.63248
1 6.6334 0.809732 4.69251
1 4.69188 2.75134 4.6912
1 6.6332 2.75135 6.63257
1 5.66164 1.78037 5.66217
1 -3.07221 4.6924 6.63251
1 -1.13234 4.69188 4.69209
1 -3.07277 6.63374 4.69148
1 -1.13091 6.63204 6.63153
1 -2.10083 5.66303 5.66207
1 0.810182 4.69198 6.63284
1 2.75074 4.69112 4.69217
1 0.809953 6.63226 4.69204
1 2.75077 6.6329 6.63312
1 1.77914 5.66235 5.66263
1 4.69245 4.69253 6.63229
1 6.63241 4.69109 4.6908
1 4.69152 6.63233 4.69205
1 6.63191 6.63189 6.63288
1 5.66226 5.66189 5.66221
ITEM: TIMESTEP
940
ITEM: NUMBER OF ATOMS
216
ITEM: BOX BOUNDS pp pp pp
-4.0425137953259354e+00 7.6032589053259372e+00
-4.0425137900868311e+00 7.6032589000868285e+00
-4.0425137953480990e+00 7.6032589053480981e+00
ITEM: ATOMS type x y z
1 -4.04208 -4.04134 -2.1024
1 -3.07243 -3.07136 -1.13167
1 -4.04265 -2.10154 -4.04313
1 -1.13144 -3.07231 -3.07171
1 -3.07213 -1.13087 -3.07131
1 -1.13209 -1.13213 -1.13105
1 -2.10166 -4.04205 -4.04316
1 -2.10172 -2.10097 -2.10027
1 -4.04145 -2.10278 -0.15972
1 -2.10202 -4.0408 -0.161326
1 -4.04251 -0.160807 -2.10208
1 -2.10152 -0.160945 -4.04199
1 -2.10007 -0.160578 -0.159293
1 -0.161119 -4.04304 -2.10015
1 -0.161204 -2.10146 -4.04064
1 -0.160099 -2.10135 -0.160824
1 -0.160811 -0.161101 -2.10248
1 0.810201 -3.07193 -1.13019
1 2.75027 -3.07184 -3.07232
1 0.810472 -1.13032 -3.07108
1 2.75231 -1.13128 -1.13218
1 1.78098 -4.04331 -4.04379
1 1.77981 -2.1004 -2.10176
1 1.78025 -4.04273 -0.159105
1 1.78117 -0.16183 -4.04257
1 1.78148 -0.159607 -0.160634
1 3.72157 -4.04262 -2.10178
1 3.72038 -2.10143 -4.0429
1 3.72073 -2.10067 -0.161254
1 3.7223 -0.161899 -2.10121
1 4.69219 -3.07269 -1.12992
1 6.63343 -3.07202 -3.07196
1 4.6932 -1.13042 -3.07231
1 6.63253 -1.13054 -1.13004
1 5.6631 -4.04224 -4.04216
1 5.66127 -2.10131 -2.10199
1 5.66282 -4.04262 -0.160575
1 5.66065 -0.16037 -4.04354
1 5.66159 -0.161023 -0.16031
1 -3.07029 0.809484 -1.13091
1 -4.04266 1.78036 -4.042
1 -1.13032 0.810066 -3.07164
1 -3.07274 2.75054 -3.07272
1 -1.13233 2.75153 -1.13163
1 -2.10084 1.78136 -2.10237
1 -4.04323 1.77955 -0.160334
1 -4.04294 3.72213 -2.1013
1 -2.10255 3.72167 -4.0418
1 -2.10173 3.72041 -0.161101
1 -0.160413 1.77927 -4.04203
1 -0.161329 1.77905 -0.160633
1 -0.160658 3.72067 -2.10145
1 0.80985 0.808556 -1.1296
1 2.7496 0.809302 -3.07267
1 0.808999 2.75161 -3.07168
1 2.75 2.75037 -1.13214
1 1.78019 1.7799 -2.10123
1 1.77954 3.72157 -4.04254
1 1.78103 3.72099 -0.159873
1 3.7205 1.78042 -4.04268
1 3.72175 1.77987 -0.160665
1 3.72159 3.72177 -2.10129
1 4.69129 0.810355 -1.13226
1 6.63076 0.809473 -3.07215
1 4.69282 2.75051 -3.07258
1 6.63279 2.75047 -1.13193
1 5.66227 1.78174 -2.10022
1 5.66291 3.72097 -4.04265
1 5.66216 3.71994 -0.160529
1 -3.07168 4.69168 -1.1304
1 -4.04326 5.66263 -4.04182
1 -1.13097 4.69315 -3.07223
1 -3.07279 6.63217 -3.07194
1 -1.13052 6.63427 -1.13093
1 -2.10214 5.66247 -2.10208
1 -4.04152 5.66234 -0.161499
1 -0.159306 5.66138 -4.04323
1 -0.162041 5.66146 -0.160839
1 0.809774 4.69279 -1.13135
1 2.74966 4.6917 -3.07247
1 0.809118 6.63293 -3.07202
1 2.75093 6.63415 -1.13139
1 1.78092 5.66159 -2.10119
1 3.72126 5.6611 -4.04155
1 3.72314 5.66223 -0.160746
1 4.69296 4.69102 -1.1312
1 6.63234 4.69255 -3.07159
1 4.69145 6.63279 -3.07118
1 6.63271 6.63381 -1.13138
1 5.66253 5.66286 -2.10161
1 -4.04291 -4.04295 1.78179
1 -3.07175 -3.07204 2.75272
1 -1.13173 -3.07195 0.80905
1 -3.07187 -1.13153 0.810287
1 -1.13174 -1.13125 2.75111
1 -2.10142 -2.10176 1.77954
1 -4.04365 -2.10208 3.7226
1 -2.10212 -4.04354 3.72202
1 -4.0422 -0.160039 1.78011
1 -2.10096 -0.162586 3.72016
1 -0.161078 -4.04139 1.78018
1 -0.159475 -2.10267 3.72051
1 -0.161302 -0.160107 1.77914
1 0.808363 -3.07242 2.7511
1 2.75055 -3.07139 0.810344
1 0.80894 -1.13267 0.810066
1 2.75195 -1.1296 2.75047
1 1.78084 -2.10234 1.77949
1 1.77974 -4.04196 3.72146
1 1.78038 -0.161251 3.72076
1 3.7223 -4.04199 1.78163
1 3.72138 -2.10154 3.7213
1 3.72105 -0.161368 1.78063
1 4.69206 -3.07237 2.75116
1 6.63426 -3.07305 0.809304
1 4.69268 -1.13229 0.809013
1 6.63353 -1.13057 2.74991
1 5.66286 -2.10119 1.78038
1 5.66141 -4.04224 3.72072
1 5.66325 -0.160338 3.72137
1 -3.07167 0.809867 2.75157
1 -1.13015 0.809993 0.810638
1 -3.0715 2.75095 0.809727
1 -1.13082 2.75144 2.75167
1 -2.10174 1.78012 1.77975
1 -4.04262 1.78001 3.72066
1 -4.04093 3.72124 1.78098
1 -2.10173 3.72261 3.72106
1 -0.160708 1.78124 3.72035
1 -0.160347 3.72125 1.77992
1 0.808881 0.809271 2.75014
1 2.75113 0.810233 0.810335
1 0.80988 2.75234 0.808909
1 2.7515 2.75105 2.75141
1 1.78056 1.77985 1.78043
1 1.77972 3.72222 3.72211
1 3.72078 1.78128 3.72218
1 3.72171 3.72208 1.77995
1 4.69168 0.809369 2.75132
1 6.63193 0.809731 0.808475
1 4.69269 2.75156 0.809562
1 6.63314 2.75048 2.75085
1 5.66341 1.78114 1.78085
1 5.66216 3.72192 3.72065
1 -3.07151 4.69261 2.75082
1 -1.13176 4.69173 0.809532
1 -3.07043 6.63316 0.809327
1 -1.13062 6.63263 2.75222
1 -2.10122 5.66218 1.78055
1 -4.04192 5.6618 3.72193
1 -0.160605 5.66165 3.72167
1 0.808014 4.69262 2.74967
1 2.75053 4.69033 0.809252
1 0.810367 6.63235 0.810193
1 2.75258 6.63282 2.7493
1 1.78085 5.6617 1.7796
1 3.72201 5.66196 3.72255
1 4.69109 4.6929 2.75118
1 6.63287 4.69199 0.811829
1 4.69247 6.63395 0.810241
1 6.63267 6.63232 2.75034
1 5.66271 5.66238 1.77952
1 -4.04303 -4.04315 5.66177
1 -3.07187 -3.07161 6.63398
1 -1.13192 -3.07059 4.6919
1 -3.07275 -1.13053 4.69124
1 -1.13232 -1.13089 6.63387
1 -2.10253 -2.10162 5.66141
1 -4.04172 -0.161247 5.66307
1 -0.160932 -4.04229 5.66209
1 -0.160621 -0.159695 5.66166
1 0.808969 -3.07091 6.6339
1 2.74946 -3.07253 4.69166
1 0.810019 -1.13063 4.69193
1 2.75015 -1.13015 6.63201
1 1.77971 -2.10288 5.66192
1 3.72261 -4.04207 5.66237
1 3.72163 -0.160795 5.66299
1 4.69226 -3.07066 6.63358
1 6.63542 -3.07221 4.69287
1 4.69225 -1.13088 4.69226
1 6.63267 -1.13126 6.63093
1 5.66159 -2.10233 5.66228
1 -3.07029 0.809315 6.63241
1 -1.13014 0.808378 4.69198
1 -3.07221 2.75147 4.69132
1 -1.13123 2.75115 6.63346
1 -2.10116 1.78187 5.6629
1 -4.04262 3.72111 5.66304
1 -0.161206 3.72085 5.66243
1 0.811168 0.810235 6.63322
1 2.75046 0.809013 4.69079
1 0.809791 2.75067 4.69171
1 2.75066 2.75094 6.633
1 1.77945 1.78042 5.66137
1 3.72131 3.7202 5.6628
1 4.6914 0.809427 6.63237
1 6.63361 0.809696 4.69276
1 4.69192 2.75149 4.69101
1 6.63333 2.7515 6.6325
1 5.66144 1.78037 5.66211
1 -3.07228 4.69262 6.63242
1 -1.13276 4.69189 4.69219
1 -3.07304 6.63404 4.69139
1 -1.13085 6.63181 6.63111
1 -2.10063 5.66328 5.66201
1 0.810264 4.692 6.63284
1 2.75067 4.69089 4.69231
1 0.809976 6.63209 4.6921
1 2.75077 6.63293 6.63322
1 1.77876 5.66237 5.66273
1 4.69265 4.69274 6.63215
1 6.63231 4.69085 4.69044
1 4.69143 6.63222 4.69214
1 6.63162 6.6316 6.6329
1 5.66225 5.66174 5.66216
ITEM: TIMESTEP
950
ITEM: NUMBER OF ATOMS
216
ITEM: BOX BOUNDS pp pp pp
-4.0425137953259354e+00 7.6032589053259372e+00
-4.0425137900868311e+00 7.6032589000868285e+00
-4.0425137953480990e+00 7.6032589053480981e+00
ITEM: ATOMS type x y z
1 -4.04198 -4.04104 -2.10259
1 -3.07254 -3.07121 -1.13185
1 -4.04271 -2.10149 -4.04328
1 -1.13154 -3.07239 -3.0716
1 -3.0722 -1.13082 -3.07115
1 -1.13229 -1.13236 -1.13104
1 -2.10166 -4.04198 -4.04331
1 -2.10178 -2.10083 -2.09999
1 -4.04124 -2.10303 -0.159533
1 -2.10213 -4.04043 -0.161499
1 -4.04254 -0.160838 -2.10216
1 -2.10151 -0.16103 -4.04185
1 -2.09975 -0.160582 -0.159021
1 -0.161191 -4.04316 -2.09985
1 -0.161368 -2.10142 -4.04021
1 -0.159966 -2.1013 -0.160908
1 -0.160876 -0.16122 -2.10265
1 0.810297 -3.07189 -1.12999
1 2.75014 -3.07177 -3.0724
1 0.810578 -1.13015 -3.07085
1 2.75264 -1.13131 -1.13242
1 1.78108 -4.0435 -4.04404
1 1.77968 -2.1002 -2.10179
1 1.78025 -4.0428 -0.158775
1 1.78135 -0.16211 -4.04262
1 1.78173 -0.159433 -0.160627
1 3.72159 -4.04259 -2.10183
1 3.72013 -2.10139 -4.04298
1 3.72059 -2.10054 -0.161399
1 3.72254 -0.16214 -2.1012
1 4.69227 -3.07281 -1.12967
1 6.63356 -3.07197 -3.07195
1 4.69349 -1.13032 -3.07241
1 6.63249 -1.13044 -1.12981
1 5.66327 -4.0422 -4.04207
1 5.66107 -2.10127 -2.10206
1 5.66296 -4.04261 -0.160567
1 5.66031 -0.16031 -4.0438
1 5.66143 -0.16113 -0.160264
1 -3.06986 0.8094 -1.13087
1 -4.04273 1.78028 -4.04189
1 -1.13012 0.810102 -3.07154
1 -3.07295 2.75048 -3.07287
1 -1.13258 2.75167 -1.13176
1 -2.10071 1.78156 -2.10255
1 -4.04336 1.77934 -0.160332
1 -4.04305 3.72231 -2.10123
1 -2.10277 3.72181 -4.04163
1 -2.10178 3.72019 -0.161215
1 -0.160332 1.77901 -4.04193
1 -0.161482 1.77879 -0.160674
1 -0.160674 3.72054 -2.10141
1 0.809809 0.808223 -1.12925
1 2.74934 0.809164 -3.07279
1 0.808768 2.75176 -3.07158
1 2.74982 2.75025 -1.13242
1 1.78013 1.77977 -2.10117
1 1.77932 3.72158 -4.04255
1 1.78116 3.7209 -0.159762
1 3.72027 1.78042 -4.04267
1 3.72186 1.77976 -0.160672
1 3.72164 3.72183 -2.10125
1 4.69112 0.810471 -1.13251
1 6.63032 0.809375 -3.07222
1 4.693 2.75047 -3.07275
1 6.63287 2.75041 -1.13209
1 5.66225 1.78201 -2.09995
1 5.66304 3.7209 -4.04268
1 5.66221 3.71966 -0.160484
1 -3.07162 4.69165 -1.13027
1 -4.04344 5.6627 -4.0417
1 -1.13097 4.69347 -3.07228
1 -3.07294 6.63205 -3.07193
1 -1.13045 6.63461 -1.13089
1 -2.10225 5.66254 -2.1022
1 -4.0413 5.66236 -0.161684
1 -0.159037 5.6612 -4.04336
1 -0.16239 5.66127 -0.16089
1 0.809739 4.69302 -1.1314
1 2.74942 4.69164 -3.07255
1 0.808942 6.63299 -3.07202
1 2.75097 6.63443 -1.13142
1 1.78102 5.66147 -2.10106
1 3.72126 5.66082 -4.04136
1 3.72356 5.66225 -0.160779
1 4.69322 4.69085 -1.13122
1 6.63224 4.69271 -3.07146
1 4.69136 6.6328 -3.071
1 6.63274 6.63402 -1.13145
1 5.66261 5.663 -2.1016
1 -4.04295 -4.04307 1.78213
1 -3.07168 -3.07204 2.75313
1 -1.1319 -3.07194 0.80887
1 -3.07183 -1.13161 0.810403
1 -1.13186 -1.13134 2.75111
1 -2.10141 -2.10185 1.77941
1 -4.04391 -2.10217 3.72286
1 -2.10222 -4.04375 3.72217
1 -4.04211 -0.159921 1.78003
1 -2.10082 -0.163039 3.71991
1 -0.161238 -4.0412 1.78011
1 -0.159248 -2.10288 3.72033
1 -0.161427 -0.160063 1.7789
1 0.808048 -3.07251 2.75114
1 2.75051 -3.07121 0.810474
1 0.808761 -1.13303 0.810102
1 2.75218 -1.12935 2.75036
1 1.78095 -2.10249 1.77931
1 1.77961 -4.04193 3.72144
1 1.78036 -0.161417 3.7206
1 3.72252 -4.04185 1.78188
1 3.72138 -2.1015 3.72132
1 3.72105 -0.161521 1.78069
1 4.69216 -3.07237 2.75128
1 6.63464 -3.0733 0.809223
1 4.69286 -1.13258 0.80883
1 6.6337 -1.13047 2.74969
1 5.66302 -2.10112 1.78035
1 5.66125 -4.04221 3.72061
1 5.66347 -0.160269 3.72139
1 -3.07156 0.809878 2.7517
1 -1.12995 0.810049 0.810819
1 -3.07141 2.75093 0.809698
1 -1.13079 2.75157 2.75184
1 -2.10178 1.7801 1.77966
1 -4.0426 1.77992 3.72057
1 -4.04054 3.72124 1.78111
1 -2.10179 3.72289 3.721
1 -0.160773 1.78141 3.72011
1 -0.160319 3.72122 1.77977
1 0.808645 0.809136 2.74994
1 2.75122 0.810316 0.810428
1 0.809852 2.75263 0.808676
1 2.7516 2.75112 2.75152
1 1.7806 1.77977 1.78047
1 1.77956 3.72246 3.72224
1 3.72066 1.78146 3.72236
1 3.72181 3.72224 1.77988
1 4.69169 0.809275 2.75141
1 6.63173 0.809709 0.808161
1 4.69289 2.75169 0.809501
1 6.63323 2.75039 2.75083
1 5.66361 1.78129 1.78098
1 5.66213 3.72207 3.72045
1 -3.07137 4.69281 2.75081
1 -1.13193 4.6917 0.809437
1 -3.07004 6.63327 0.809199
1 -1.13051 6.63262 2.75254
1 -2.10111 5.66219 1.78057
1 -4.04183 5.66167 3.72208
1 -0.160611 5.66151 3.72174
1 0.807613 4.69281 2.74942
1 2.75053 4.69002 0.809058
1 0.810441 6.63224 0.810279
1 2.75294 6.63281 2.74897
1 1.78098 5.66159 1.77944
1 3.7221 5.66188 3.72285
1 4.69091 4.69316 2.75122
1 6.63293 4.69201 0.812234
1 4.6926 6.6342 0.810292
1 6.63264 6.63222 2.75026
1 5.66282 5.66239 1.77933
1 -4.04316 -4.04334 5.66171
1 -3.07185 -3.07155 6.63426
1 -1.13211 -3.07025 4.69196
1 -3.07292 -1.1304 4.6911
1 -1.13258 -1.13085 6.63413
1 -2.10274 -2.1016 5.6612
1 -4.04151 -0.161359 5.66325
1 -0.161037 -4.04219 5.66205
1 -0.160622 -0.159534 5.66156
1 0.808701 -3.07065 6.63417
1 2.74916 -3.07264 4.69161
1 0.810043 -1.13056 4.69195
1 2.74999 -1.12999 6.63181
1 1.77952 -2.10315 5.66185
1 3.7229 -4.042 5.66241
1 3.72165 -0.160844 5.66309
1 4.69235 -3.07036 6.63379
1 6.63593 -3.0723 4.69311
1 4.69236 -1.13088 4.69233
1 6.63265 -1.13131 6.63054
1 5.66145 -2.10251 5.66225
1 -3.0699 0.809209 6.63235
1 -1.12995 0.808073 4.692
1 -3.07225 2.75159 4.6912