ITEM: TIMESTEP
1430
ITEM: NUMBER OF ATOMS
216
ITEM: BOX BOUNDS pp pp pp
-4.4797515445652687e+00 8.0417486793876840e+00
-4.4797515445652696e+00 8.0404966545652385e+00
-4.4797515445652731e+00 8.0404966545677716e+00
ITEM: ATOMS type x y z
1 -3.66064 -4.38596 -2.74032
1 -0.562774 -2.82209 -3.66871
1 -0.592883 -4.04151 -3.28332
1 4.76001 -2.45604 -4.38804
1 7.78012 -3.71303 -2.55209
1 -0.86753 -1.5065 -3.57772
1 -1.78315 -1.16891 -2.61559
1 1.38493 -2.08522 -2.74295
1 -0.277896 -0.520916 -4.29524
1 2.38361 -1.43666 -3.20668
1 3.39597 -0.52081 -3.14068
1 4.31161 -0.307426 -4.10266
1 5.96422 -2.09652 -4.16665
1 7.22877 -1.67921 -4.44472
1 -2.65682 -0.181762 -4.47222
1 -1.94969 0.670364 -3.85197
1 -1.7124 1.71989 -3.18336
1 7.74722 0.94282 -2.68169
1 -4.36176 2.094 -3.13314
1 -3.93329 2.97922 -3.99113
1 -1.99655 2.82027 -2.62153
1 0.296896 2.08606 -2.69544
1 0.382572 1.94505 -4.05884
1 3.35673 3.46239 -2.66639
1 5.00238 1.88707 -3.55032
1 5.76721 2.06259 -2.53345
1 -2.69916 5.807 -3.62877
1 -0.139827 5.04929 -3.06164
1 -0.0828336 4.04532 -3.88282
1 3.41046 4.22705 -3.68004
1 5.24465 5.06621 -3.09607
1 7.36193 4.38502 -2.70814
1 6.26213 4.24389 -3.49065
1 -2.5056 7.62187 -2.4969
1 -1.66367 6.00577 -4.35493
1 -1.17097 7.38235 -2.70886
1 -0.553445 6.17899 -2.5809
1 3.29653 7.64741 -3.84874
1 3.82587 6.9475 -2.90879
1 1.95563 6.04712 -4.42441
1 7.11745 6.67399 -3.57554
1 -1.33596 -3.67968 -0.709001
1 -0.25963 -3.18762 -1.19442
1 0.487589 -2.42245 -1.89475
1 3.02193 -4.0772 -1.02316
1 4.15885 -3.64739 -1.4439
1 5.30694 -3.67088 -2.02393
1 6.56723 -3.47196 -2.19309
1 7.66575 -4.30282 -0.539884
1 -3.01176 -1.34066 -0.417373
1 -2.59525 -1.3248 -1.63223
1 6.80684 -2.09621 -0.51727
1 7.0331 -1.13225 -1.36343
1 -1.12002 1.48439 -0.683279
1 3.30892 0.0861672 -1.90916
1 2.78774 0.188954 -0.654668
1 7.48932 -0.00126807 -1.82118
1 -3.88509 2.72422 -0.362804
1 -2.80344 3.74629 -2.31378
1 -0.244523 1.88923 -1.54254
1 1.84119 2.93145 -0.785809
1 2.77089 2.97143 -1.65136
1 5.30372 3.21349 -0.571455
1 6.22832 2.61637 -1.374
1 7.55937 2.5839 -1.06262
1 -3.94704 4.28826 -2.34913
1 -3.4943 6.33273 -0.555858
1 4.59352 5.98476 -2.3212
1 4.7343 5.96285 -0.953804
1 7.43239 6.65347 -2.32014
1 8.02399 7.0492 -1.14854
1 -3.23157 -3.57693 0.93925
1 -2.28873 -3.86737 0.124133
1 1.1297 -4.15366 0.649632
1 0.235598 -3.45979 1.40633
1 2.08172 -4.35564 -0.190869
1 3.87281 -3.73564 1.16378
1 6.85963 -3.35771 0.0270582
1 6.20397 -3.76828 1.15895
1 -3.78826 -1.58491 0.575943
1 0.95304 -1.38158 0.319011
1 0.243013 -2.00503 1.28598
1 1.95506 -0.818133 -0.249331
1 7.72811 -1.46021 1.36473
1 -3.41186 0.742592 0.146265
1 -2.17971 0.893961 -0.227936
1 3.03514 1.18684 0.222904
1 5.59866 1.64846 1.32778
1 7.99888 0.98391 0.772664
1 6.86185 1.54901 1.04231
1 -3.08828 3.09096 0.689866
1 -1.76237 2.70295 0.901777
1 -0.621173 2.50989 1.53357
1 0.835786 3.37962 -0.148437
1 0.681833 2.42824 1.71732
1 3.12647 1.78038 1.44151
1 4.1721 3.70731 -0.218865
1 -3.70053 4.0599 1.61997
1 -1.88319 5.37554 1.23367
1 -0.47263 5.08936 1.26341
1 0.0460525 4.2476 0.348966
1 3.33506 4.56752 0.232438
1 2.89704 5.54005 0.940604
1 5.17815 5.53864 1.4322
1 6.50276 5.18601 1.46341
1 7.5458 4.46403 1.69158
1 -2.55387 6.05528 0.280923
1 4.23087 7.69678 0.563244
1 4.70628 6.4243 0.345153
1 -3.90496 -3.57246 2.02777
1 -4.33117 -3.1602 3.16212
1 -0.647079 -4.04505 2.28273
1 -1.73781 -4.21227 2.96448
1 3.13778 -2.93507 1.86076
1 2.34709 -2.54637 2.92851
1 2.24712 -3.66104 3.71807
1 -0.448865 -1.34888 2.24485
1 -0.954087 -1.17234 3.48435
1 1.00345 -0.412463 3.51185
1 1.85405 -1.31875 3.17166
1 3.80585 -0.649478 3.56378
1 4.4985 -0.598916 2.48963
1 6.25221 -2.30849 3.22506
1 6.79616 -1.80929 2.17544
1 -1.94772 -0.301317 3.79079
1 2.09173 1.72961 3.59058
1 7.87936 1.7091 3.1803
1 7.17914 0.679638 3.45324
1 -4.18113 2.89222 3.29791
1 1.89713 2.01769 2.25791
1 4.46506 2.00365 2.03056
1 4.56213 2.50535 3.29516
1 -2.53076 4.60963 2.30911
1 -4.08699 4.09379 3.72269
1 -4.31694 5.34918 3.80137
1 -2.00576 4.2467 3.48704
1 0.234332 5.52127 2.32528
1 0.798974 5.48319 3.55773
1 3.31722 4.93903 3.17633
1 2.12267 5.15261 3.61087
1 4.33277 5.01544 2.38079
1 2.94723 6.48383 1.80284
1 3.47111 7.19446 2.82683
1 4.73344 7.71264 2.75129
1 5.97283 7.95832 2.24928
1 7.04066 7.3619 2.84707
1 7.69786 6.4867 3.50927
1 -4.28289 -2.73903 4.36905
1 -3.76577 -2.40322 5.48855
1 -0.43248 -2.84465 5.48168
1 0.523579 -3.73812 5.75908
1 5.10218 -3.98247 4.71929
1 5.46672 -3.03822 3.93017
1 -0.422787 -1.98396 4.43366
1 2.91264 -0.988947 5.74022
1 5.71939 -0.508679 5.10688
1 -2.83084 0.303387 4.50648
1 -3.37864 1.27627 5.28946
1 -0.345515 1.4537 4.56818
1 0.404185 0.451187 4.25827
1 3.14036 -0.20303 4.65424
1 2.67945 1.17784 4.69033
1 6.38179 -0.068957 4.10868
1 -2.8695 2.53286 5.23004
1 -0.692652 2.66698 5.09457
1 -1.21077 3.66077 4.31341
1 2.91607 1.84142 5.8557
1 4.87463 2.55255 4.54123
1 5.07714 3.05774 5.70559
1 0.0190325 5.75035 4.64785
1 2.54393 5.64288 5.60887
1 -2.52252 7.87596 3.90283
1 -3.3501 7.9229 4.90113
1 -4.44555 7.74288 5.57477
1 -0.99933 6.17688 5.32294
1 -2.19685 6.19776 5.81537
1 2.68296 7.58789 4.00251
1 2.63411 6.96682 5.2824
1 4.99394 7.34677 5.18625
1 -4.31426 -2.64819 7.95317
1 -3.70031 -3.69988 7.49214
1 -1.57912 -2.6808 6.17519
1 3.67772 -2.82071 7.41344
1 3.21019 -4.18402 7.50415
1 5.72135 -2.5205 6.26293
1 6.26567 -3.63015 6.60111
1 -2.93093 -1.19393 7.33558
1 -2.78636 -2.11966 6.37688
1 3.0553 -1.96918 6.55634
1 5.47195 -1.18374 6.25594
1 5.00043 -0.521747 7.35078
1 7.43233 -0.317643 7.92375
1 -4.41907 1.02838 6.13322
1 0.156569 0.671481 8.03953
1 7.41472 0.930635 7.31556
1 -0.430512 2.91345 6.41018
1 0.376535 3.18131 7.5525
1 1.50299 3.71534 6.8526
1 3.40917 2.06753 7.02008
1 4.30106 2.18893 7.93679
1 6.75532 2.04899 7.82405
1 6.22099 3.33595 7.8559
1 -3.97406 3.97694 7.68854
1 -3.83359 5.19293 7.23264
1 2.43828 4.69417 6.56404
1 2.8795 5.02545 7.94024
1 5.58081 3.89759 6.65231
1 5.49655 5.24924 6.49855
1 -3.36817 7.56701 7.36874
1 -3.19157 6.32992 6.76178
1 -0.494967 6.41116 7.85318
1 0.771728 6.50351 7.96324
1 2.71137 7.79406 6.36767
1 5.10366 6.37574 6.02001
1 7.17131 7.86889 6.60759
1 7.1505 7.02953 7.70004
ITEM: TIMESTEP
1440
ITEM: NUMBER OF ATOMS
216
ITEM: BOX BOUNDS pp pp pp
-4.4797515445652687e+00 8.0417486793876840e+00
-4.4797515445652696e+00 8.0404966545652385e+00
-4.4797515445652731e+00 8.0404966545677716e+00
ITEM: ATOMS type x y z
1 -3.6606 -4.38599 -2.7404
1 -0.562733 -2.82209 -3.66866
1 -0.592839 -4.0415 -3.28327
1 4.76012 -2.45612 -4.38826
1 7.78013 -3.7131 -2.55222
1 -0.867517 -1.5065 -3.57769
1 -1.78323 -1.1689 -2.61566
1 1.38494 -2.08525 -2.74292
1 -0.277831 -0.520915 -4.29517
1 2.38361 -1.43667 -3.20665
1 3.39595 -0.520876 -3.14068
1 4.31161 -0.307413 -4.10261
1 5.96418 -2.09645 -4.16665
1 7.22875 -1.67919 -4.4447
1 -2.65685 -0.181855 -4.47217
1 -1.94969 0.670265 -3.85195
1 -1.7124 1.7198 -3.18335
1 7.74726 0.942821 -2.68171
1 -4.36189 2.09402 -3.13332
1 -3.93333 2.97923 -3.99116
1 -1.99655 2.8202 -2.62154
1 0.296863 2.08614 -2.69541
1 0.382585 1.94507 -4.05881
1 3.35677 3.46238 -2.66638
1 5.00245 1.88715 -3.55039
1 5.76722 2.06266 -2.53349
1 -2.69914 5.80693 -3.62899
1 -0.139895 5.04925 -3.0617
1 -0.0829786 4.04533 -3.88295
1 3.41049 4.22702 -3.68005
1 5.24466 5.06619 -3.09607
1 7.36199 4.38508 -2.70818
1 6.26216 4.2439 -3.49065
1 -2.50557 7.62184 -2.49695
1 -1.66359 6.00596 -4.355
1 -1.17093 7.38233 -2.70886
1 -0.553406 6.17897 -2.58092
1 3.29652 7.64738 -3.84877
1 3.82587 6.94749 -2.9088
1 1.9557 6.04715 -4.42439
1 7.11751 6.67396 -3.57556
1 -1.33598 -3.6797 -0.709009
1 -0.259634 -3.18771 -1.19444
1 0.487641 -2.42252 -1.89468
1 3.02197 -4.07718 -1.0231
1 4.15891 -3.64741 -1.44381
1 5.30698 -3.67093 -2.02392
1 6.56726 -3.47202 -2.19313
1 7.6658 -4.30277 -0.539977
1 -3.01179 -1.34065 -0.417423
1 -2.59531 -1.32475 -1.63229
1 6.80686 -2.09617 -0.517268
1 7.03306 -1.13217 -1.36339
1 -1.12006 1.48439 -0.683276
1 3.30892 0.0861302 -1.90913
1 2.78772 0.188916 -0.654652
1 7.48935 -0.00123356 -1.82116
1 -3.88508 2.72423 -0.36281
1 -2.80342 3.74625 -2.31379
1 -0.244587 1.88931 -1.54253
1 1.84128 2.9315 -0.785752
1 2.77096 2.97145 -1.65132
1 5.30377 3.21351 -0.571475
1 6.22836 2.61639 -1.37403
1 7.5594 2.58385 -1.06262
1 -3.947 4.28826 -2.34915
1 -3.49429 6.33273 -0.555847
1 4.59352 5.98475 -2.32121
1 4.73427 5.96284 -0.953809
1 7.43241 6.65348 -2.32015
1 8.02404 7.04923 -1.14857
1 -3.23158 -3.57692 0.939256
1 -2.28872 -3.86737 0.124177
1 1.12966 -4.15366 0.649606
1 0.235534 -3.4598 1.40628
1 2.08176 -4.35563 -0.19082
1 3.87276 -3.73561 1.16373
1 6.8597 -3.35768 0.02702
1 6.20404 -3.76827 1.15889
1 -3.78826 -1.58492 0.575905
1 0.952982 -1.38157 0.319011
1 0.242957 -2.00504 1.28597
1 1.955 -0.818151 -0.249338
1 7.72813 -1.46024 1.36473
1 -3.41189 0.742592 0.146286
1 -2.17975 0.893957 -0.22796
1 3.03512 1.1868 0.222918
1 5.59863 1.64849 1.32774
1 7.99886 0.983972 0.772677
1 6.86181 1.54905 1.04225
1 -3.08829 3.09092 0.689899
1 -1.76242 2.70285 0.901854
1 -0.621195 2.5099 1.53363
1 0.835861 3.37965 -0.148389
1 0.68181 2.42818 1.71732
1 3.12644 1.78036 1.44151
1 4.17215 3.70731 -0.21886
1 -3.70054 4.05988 1.62
1 -1.88319 5.37553 1.23369
1 -0.472626 5.08937 1.26344
1 0.046102 4.24763 0.348995
1 3.3351 4.5675 0.23246
1 2.89707 5.54003 0.940618
1 5.17815 5.53866 1.43219
1 6.50276 5.186 1.46337
1 7.54579 4.46401 1.69159
1 -2.55387 6.05528 0.280953
1 4.23089 7.6968 0.563207
1 4.70628 6.42431 0.345139
1 -3.90502 -3.57243 2.02775
1 -4.33121 -3.16019 3.16211
1 -0.647175 -4.04506 2.28265
1 -1.73786 -4.21219 2.96448
1 3.13774 -2.93508 1.86072
1 2.3471 -2.54637 2.92846
1 2.24712 -3.66106 3.71806
1 -0.448896 -1.3489 2.24487
1 -0.954056 -1.17233 3.48438
1 1.00347 -0.412487 3.51183
1 1.85413 -1.31873 3.1717
1 3.80578 -0.649493 3.56377
1 4.49847 -0.598934 2.48967
1 6.25224 -2.30854 3.22504
1 6.7962 -1.80935 2.17543
1 -1.9477 -0.301301 3.79082
1 2.0917 1.72959 3.59059
1 7.87932 1.70913 3.18034
1 7.17909 0.679667 3.45326
1 -4.18116 2.89224 3.29796
1 1.8971 2.01766 2.25791
1 4.46504 2.00365 2.03056
1 4.56211 2.50533 3.29517
1 -2.53078 4.60962 2.30912
1 -4.08699 4.09382 3.72272
1 -4.31694 5.34922 3.80138
1 -2.00585 4.2467 3.48708
1 0.234332 5.52129 2.3253
1 0.798986 5.48321 3.55774
1 3.31723 4.93906 3.17634
1 2.12268 5.15264 3.61087
1 4.3328 5.01547 2.38081
1 2.94725 6.48384 1.80283
1 3.47112 7.19448 2.82679
1 4.73345 7.71273 2.75125
1 5.97284 7.95834 2.24922
1 7.04066 7.36192 2.84706
1 7.69783 6.48672 3.50927
1 -4.28293 -2.73911 4.36907
1 -3.76579 -2.40332 5.48857
1 -0.43246 -2.84463 5.48172
1 0.523622 -3.73806 5.75914
1 5.10226 -3.98253 4.7193
1 5.46677 -3.0383 3.93014
1 -0.422775 -1.98393 4.43369
1 2.91259 -0.988957 5.74024
1 5.71937 -0.508667 5.10691
1 -2.83081 0.303408 4.50652
1 -3.37861 1.27631 5.28945
1 -0.345504 1.45374 4.56806
1 0.404183 0.451216 4.2582
1 3.14033 -0.203049 4.65427
1 2.67944 1.17783 4.69033
1 6.38176 -0.0689352 4.1087
1 -2.86947 2.5329 5.23001
1 -0.692676 2.66696 5.09454
1 -1.21085 3.6608 4.31348
1 2.91607 1.84145 5.85568
1 4.87467 2.55252 4.54122
1 5.07716 3.05772 5.70559
1 0.0190241 5.75036 4.64787
1 2.5439 5.64288 5.60889
1 -2.52255 7.87602 3.90283
1 -3.35013 7.92294 4.90113
1 -4.44558 7.74288 5.57478
1 -0.99936 6.17687 5.32295
1 -2.19687 6.19773 5.81539
1 2.68298 7.58787 4.0025
1 2.6341 6.96681 5.2824
1 4.99402 7.34672 5.18627
1 -4.31432 -2.6482 7.9532
1 -3.70036 -3.69987 7.49215
1 -1.57912 -2.68082 6.1752
1 3.6777 -2.82069 7.41348
1 3.21019 -4.18402 7.50415
1 5.72118 -2.52051 6.26322
1 6.26564 -3.63019 6.60105
1 -2.93096 -1.19398 7.33556
1 -2.78638 -2.11972 6.37688
1 3.05526 -1.96915 6.55639
1 5.47193 -1.18378 6.25597
1 5.00047 -0.521721 7.35077
1 7.43235 -0.31763 7.92371
1 -4.41904 1.02843 6.13319
1 0.15665 0.671475 8.03961
1 7.41474 0.930623 7.31555
1 -0.430529 2.91336 6.41016
1 0.376495 3.18128 7.55247
1 1.50294 3.71534 6.85259
1 3.40919 2.06757 7.02005
1 4.30107 2.18897 7.93676
1 6.75541 2.04898 7.82431
1 6.22101 3.33593 7.85592
1 -3.97415 3.97699 7.68854
1 -3.83366 5.19303 7.2328
1 2.43823 4.69417 6.56406
1 2.87952 5.02543 7.94025
1 5.58083 3.89756 6.65231
1 5.49657 5.2492 6.49858
1 -3.3682 7.56702 7.36874
1 -3.19158 6.32992 6.76176
1 -0.494847 6.41131 7.85318
1 0.771821 6.50359 7.96327
1 2.71138 7.79407 6.36765
1 5.10373 6.37571 6.02004
1 7.17127 7.86886 6.60759
1 7.15049 7.0295 7.70003
ITEM: TIMESTEP
1450
ITEM: NUMBER OF ATOMS
216
ITEM: BOX BOUNDS pp pp pp
-4.4797515445652687e+00 8.0417486793876840e+00
-4.4797515445652696e+00 8.0404966545652385e+00
-4.4797515445652731e+00 8.0404966545677716e+00
ITEM: ATOMS type x y z
1 -3.66043 -4.38613 -2.74076
1 -0.56255 -2.82208 -3.66841
1 -0.592647 -4.04149 -3.28301
1 4.76056 -2.45644 -4.38915
1 7.78014 -3.71339 -2.55279
1 -0.867458 -1.50651 -3.57759
1 -1.78358 -1.16886 -2.616
1 1.38496 -2.08535 -2.74278
1 -0.277548 -0.52091 -4.29487
1 2.3836 -1.43674 -3.20654
1 3.3959 -0.52112 -3.14066
1 4.31162 -0.307391 -4.10243
1 5.96403 -2.09616 -4.16671
1 7.22864 -1.67913 -4.44457
1 -2.65696 -0.182255 -4.47197
1 -1.94969 0.669842 -3.85185
1 -1.71239 1.71942 -3.18333
1 7.74744 0.942813 -2.68188
1 -4.36192 2.09414 -3.13344
1 -3.93353 2.9793 -3.99134
1 -1.99653 2.8199 -2.62158
1 0.296719 2.08646 -2.69529
1 0.382642 1.94514 -4.05865
1 3.35695 3.46234 -2.66634
1 5.0022 1.88739 -3.55033
1 5.76728 2.06295 -2.53367
1 -2.699 5.80667 -3.62983
1 -0.140187 5.04906 -3.06198
1 -0.0836046 4.04538 -3.88353
1 3.41058 4.22688 -3.68011
1 5.24472 5.06609 -3.09605
1 7.36226 4.38535 -2.70836
1 6.26229 4.24393 -3.49066
1 -2.50546 7.62171 -2.49717
1 -1.66322 6.00679 -4.35535
1 -1.17076 7.38227 -2.70884
1 -0.553265 6.17889 -2.58103
1 3.2965 7.64728 -3.84886
1 3.82586 6.94745 -2.90887
1 1.95599 6.0473 -4.42428
1 7.11776 6.6738 -3.57563
1 -1.33609 -3.67977 -0.709034
1 -0.259646 -3.18811 -1.19453
1 0.487854 -2.42278 -1.8944
1 3.02215 -4.07709 -1.02286
1 4.15921 -3.64751 -1.44347
1 5.30715 -3.67111 -2.02385
1 6.5674 -3.47228 -2.19333
1 7.66602 -4.30253 -0.540378
1 -3.01191 -1.34059 -0.417639
1 -2.59557 -1.32456 -1.63256
1 6.80694 -2.09598 -0.517259
1 7.03285 -1.13183 -1.36325
1 -1.1202 1.48438 -0.683259
1 3.30894 0.0859626 -1.90899
1 2.78762 0.188751 -0.654582
1 7.48944 -0.00108475 -1.8211
1 -3.885 2.72425 -0.36284
1 -2.80332 3.74606 -2.31385
1 -0.244863 1.88964 -1.54246
1 1.84163 2.9317 -0.785504
1 2.77123 2.97156 -1.65115
1 5.304 3.21362 -0.571558
1 6.22852 2.61645 -1.37414
1 7.55952 2.58366 -1.06263
1 -3.94682 4.28823 -2.34924
1 -3.49423 6.33276 -0.555796
1 4.5935 5.9847 -2.32125
1 4.73416 5.96281 -0.953832
1 7.43249 6.65352 -2.32018
1 8.02424 7.04934 -1.14868
1 -3.23163 -3.57691 0.939283
1 -2.28868 -3.86738 0.124369
1 1.12948 -4.15365 0.649497
1 0.235262 -3.45983 1.40611
1 2.08189 -4.35559 -0.190611
1 3.87255 -3.73545 1.16346
1 6.86001 -3.35755 0.0268521
1 6.20432 -3.76821 1.15866
1 -3.78827 -1.58492 0.575738
1 0.95273 -1.38155 0.319008
1 0.242717 -2.00506 1.28595
1 1.95476 -0.818226 -0.249365
1 7.72826 -1.46038 1.3647
1 -3.41199 0.742608 0.146379
1 -2.17994 0.893933 -0.228068
1 3.03505 1.18663 0.222979
1 5.59849 1.64859 1.32759
1 7.99878 0.984234 0.772732
1 6.86163 1.54925 1.042
1 -3.08835 3.09075 0.69004
1 -1.76262 2.70241 0.902183
1 -0.62129 2.50993 1.53388
1 0.836184 3.37982 -0.148182
1 0.681712 2.42795 1.71729
1 3.12635 1.78024 1.44155
1 4.17236 3.70728 -0.218838
1 -3.7006 4.05977 1.62009
1 -1.88317 5.37547 1.23379
1 -0.472605 5.08943 1.26353
1 0.0463139 4.24775 0.349119
1 3.33525 4.56739 0.232555
1 2.89717 5.53994 0.940678
1 5.17818 5.53872 1.43215
1 6.50276 5.18593 1.46322
1 7.54576 4.46396 1.69161
1 -2.55388 6.05531 0.281084
1 4.23096 7.69688 0.563055
1 4.70626 6.42435 0.345079
1 -3.90526 -3.5723 2.02766
1 -4.3314 -3.16015 3.16206
1 -0.647589 -4.04511 2.28233
1 -1.73809 -4.21185 2.9645
1 3.13756 -2.93512 1.86053
1 2.34714 -2.54638 2.9283
1 2.24711 -3.66113 3.718
1 -0.449032 -1.34895 2.24493
1 -0.954128 -1.17235 3.48449
1 1.00374 -0.41249 3.51173
1 1.85382 -1.31888 3.17174
1 3.80611 -0.649359 3.56387
1 4.49837 -0.598999 2.48982
1 6.2524 -2.30877 3.22496
1 6.79635 -1.80961 2.17535
1 -1.94762 -0.301232 3.79095
1 2.09161 1.72948 3.59059
1 7.87913 1.70925 3.18052
1 7.17889 0.679798 3.45339
1 -4.18128 2.89234 3.29819
1 1.897 2.01752 2.25792
1 4.46494 2.00361 2.03055
1 4.56205 2.50522 3.29519
1 -2.53088 4.60957 2.30917
1 -4.08717 4.09393 3.7229
1 -4.31692 5.34936 3.80141
1 -2.00604 4.24674 3.48721
1 0.234329 5.5214 2.32539
1 0.799035 5.48333 3.5578
1 3.31727 4.93918 3.17634
1 2.12273 5.15277 3.61089
1 4.33291 5.01557 2.38088
1 2.94731 6.48387 1.80276
1 3.47121 7.19458 2.82664
1 4.73351 7.71309 2.7511
1 5.97292 7.95843 2.24898
1 7.04063 7.36202 2.847
1 7.69773 6.48682 3.50932
1 -4.28309 -2.73945 4.36915
1 -3.7659 -2.40377 5.48866
1 -0.432377 -2.84454 5.48188
1 0.52381 -3.73779 5.75942
1 5.10261 -3.98278 4.7193
1 5.46701 -3.03861 3.93003
1 -0.422722 -1.98384 4.43384
1 2.91237 -0.989 5.74033
1 5.71927 -0.50863 5.10705
1 -2.83067 0.303496 4.50667
1 -3.37849 1.27649 5.28943
1 -0.345466 1.45392 4.56752
1 0.404186 0.451327 4.25789
1 3.14023 -0.20312 4.6544
1 2.6794 1.17781 4.69035
1 6.38163 -0.0688419 4.10882
1 -2.86936 2.53306 5.2299
1 -0.692776 2.6669 5.09442
1 -1.21121 3.66091 4.31375
1 2.91608 1.84157 5.8556
1 4.87481 2.55243 4.5412
1 5.07726 3.05761 5.70558
1 0.0189873 5.75043 4.64795
1 2.54376 5.64287 5.60898
1 -2.52272 7.87626 3.90285
1 -3.3503 7.92308 4.90116
1 -4.44569 7.74289 5.5748
1 -0.999485 6.17686 5.32301
1 -2.19696 6.19759 5.81546
1 2.68306 7.58782 4.00247
1 2.63409 6.96679 5.28239
1 4.99438 7.34651 5.18633
1 -4.31456 -2.64825 7.95334
1 -3.70059 -3.69983 7.49217
1 -1.57914 -2.68092 6.17521
1 3.67766 -2.8206 7.41362
1 3.21018 -4.18402 7.50413
1 5.72041 -2.52061 6.26434
1 6.26548 -3.63035 6.6009
1 -2.93115 -1.19417 7.33548
1 -2.78648 -2.11999 6.37686
1 3.05507 -1.96903 6.55663
1 5.47189 -1.18392 6.25611
1 5.00065 -0.521631 7.3508
1 7.43247 -0.317581 7.9236
1 -4.41892 1.02864 6.13306
1 0.156996 0.671447 8.03994
1 7.41479 0.930538 7.31558
1 -0.430604 2.91294 6.41009
1 0.376326 3.18112 7.55235
1 1.50275 3.71531 6.85256
1 3.40924 2.06777 7.01993
1 4.30112 2.18915 7.93661
1 6.75589 2.04906 7.82433
1 6.2211 3.33581 7.85609
1 -3.97455 3.97724 7.68858
1 -3.83398 5.19344 7.23337
1 2.43804 4.69414 6.56417
1 2.87959 5.02535 7.94027
1 5.58089 3.8974 6.65234
1 5.49668 5.24903 6.49871
1 -3.36828 7.56708 7.36873
1 -3.19164 6.32994 6.76169
1 -0.494337 6.41196 7.85318
1 0.772229 6.50392 7.96341
1 2.71143 7.79412 6.36758
1 5.10402 6.37556 6.02015
1 7.17113 7.86879 6.60756
1 7.15045 7.02938 7.69999
ITEM: TIMESTEP
1460
ITEM: NUMBER OF ATOMS
216
ITEM: BOX BOUNDS pp pp pp
-4.4797515445652687e+00 8.0417486793876840e+00
-4.4797515445652696e+00 8.0404966545652385e+00
-4.4797515445652731e+00 8.0404966545677716e+00
ITEM: ATOMS type x y z
1 -3.66036 -4.38618 -2.74091
1 -0.56248 -2.82208 -3.66832
1 -0.59257 -4.04148 -3.28291
1 4.76054 -2.45648 -4.38912
1 7.78015 -3.7135 -2.55301
1 -0.867435 -1.50651 -3.57756
1 -1.78371 -1.16885 -2.61612
1 1.38497 -2.08539 -2.74272
1 -0.277437 -0.520911 -4.29476
1 2.38359 -1.43677 -3.2065
1 3.39589 -0.521176 -3.14062
1 4.31162 -0.307408 -4.10239
1 5.964 -2.09604 -4.16681
1 7.2286 -1.6791 -4.44453
1 -2.65699 -0.182412 -4.4719
1 -1.9497 0.66968 -3.85182
1 -1.71239 1.71927 -3.18331
1 7.74753 0.942827 -2.68191
1 -4.36213 2.09416 -3.13373
1 -3.93361 2.97934 -3.99141
1 -1.99653 2.81978 -2.6216
1 0.296663 2.08658 -2.69524
1 0.382664 1.94517 -4.0586
1 3.35702 3.46232 -2.66633
1 5.00233 1.88752 -3.55044
1 5.76731 2.06305 -2.53374
1 -2.69876 5.80668 -3.62989
1 -0.1403 5.04899 -3.06208
1 -0.0838461 4.0454 -3.88375
1 3.41062 4.22682 -3.68013
1 5.24474 5.06605 -3.09604
1 7.36235 4.38546 -2.70843
1 6.26234 4.24394 -3.49067
1 -2.50541 7.62166 -2.49725
1 -1.66307 6.00707 -4.3555
1 -1.1707 7.38225 -2.70883
1 -0.553242 6.17884 -2.58107
1 3.29648 7.64724 -3.84889
1 3.82587 6.94743 -2.90889
1 1.95611 6.04735 -4.42423
1 7.11784 6.67371 -3.57565
1 -1.33614 -3.6798 -0.70904
1 -0.259646 -3.18827 -1.19456
1 0.487936 -2.42289 -1.89428
1 3.02222 -4.07705 -1.02276
1 4.15932 -3.64755 -1.44334
1 5.30721 -3.67117 -2.02382
1 6.56746 -3.47239 -2.19341
1 7.66611 -4.30243 -0.540534
1 -3.01195 -1.34056 -0.417726
1 -2.59568 -1.32448 -1.63267
1 6.80696 -2.0959 -0.517248
1 7.03278 -1.1317 -1.36318
1 -1.12026 1.48438 -0.683252
1 3.30894 0.0858905 -1.90895
1 2.78758 0.188688 -0.654554
1 7.48946 -0.00103815 -1.82112
1 -3.88499 2.72432 -0.362866
1 -2.80328 3.74598 -2.31387
1 -0.244967 1.88978 -1.54243
1 1.84177 2.93177 -0.785407
1 2.77134 2.97161 -1.65108
1 5.30408 3.21366 -0.571591
1 6.22858 2.61648 -1.37418
1 7.55956 2.58359 -1.06264
1 -3.94674 4.28822 -2.34927
1 -3.49421 6.33278 -0.555776
1 4.59349 5.98468 -2.32126
1 4.73412 5.9628 -0.953842
1 7.43252 6.65354 -2.32019
1 8.02431 7.04937 -1.14873
1 -3.23166 -3.57691 0.93929
1 -2.28865 -3.8674 0.124446
1 1.12942 -4.15365 0.649454
1 0.235157 -3.45984 1.40604
1 2.08195 -4.35557 -0.190531
1 3.8725 -3.73541 1.16336
1 6.86012 -3.35751 0.0267839
1 6.20442 -3.76819 1.15857
1 -3.78826 -1.58492 0.575678
1 0.952629 -1.38154 0.319007
1 0.242625 -2.00507 1.28594
1 1.95467 -0.818253 -0.249376
1 7.72831 -1.46042 1.36468
1 -3.41202 0.742557 0.146433
1 -2.18 0.89392 -0.228111
1 3.03502 1.18656 0.223003
1 5.59843 1.64863 1.32753
1 7.99875 0.984335 0.772752
1 6.86156 1.54932 1.0419
1 -3.08837 3.09068 0.690095
1 -1.7627 2.70224 0.90231
1 -0.621328 2.50995 1.53398
1 0.836307 3.37988 -0.1481
1 0.681675 2.42786 1.71728
1 3.12631 1.78019 1.44157
1 4.17244 3.70727 -0.218828
1 -3.70062 4.05972 1.62013
1 -1.88317 5.37544 1.23383
1 -0.472595 5.08945 1.26357
1 0.0463946 4.2478 0.349167
1 3.33531 4.56734 0.232592
1 2.89721 5.5399 0.940702
1 5.17819 5.53874 1.43213
1 6.50276 5.1859 1.46316
1 7.54575 4.46394 1.69162
1 -2.55388 6.05532 0.281135
1 4.23099 7.69691 0.563001
1 4.70626 6.42437 0.345055
1 -3.90535 -3.57226 2.02763
1 -4.33148 -3.16012 3.16204
1 -0.647748 -4.04513 2.2822
1 -1.73817 -4.21172 2.96451
1 3.13749 -2.93513 1.86045
1 2.34712 -2.54641 2.92826
1 2.24711 -3.66116 3.71797
1 -0.449086 -1.34897 2.24495
1 -0.954316 -1.17243 3.48453
1 1.00395 -0.412415 3.51167
1 1.85402 -1.31885 3.1718
1 3.80595 -0.649494 3.5639
1 4.49835 -0.598969 2.48986
1 6.25246 -2.30887 3.22493
1 6.79641 -1.80971 2.17531
1 -1.94758 -0.301207 3.791
1 2.09158 1.72944 3.59059
1 7.87906 1.7093 3.18058
1 7.17882 0.67985 3.45343
1 -4.18134 2.89238 3.29827
1 1.89696 2.01746 2.25792
1 4.4649 2.0036 2.03054
1 4.56203 2.50518 3.2952
1 -2.53091 4.60955 2.30919
1 -4.08724 4.09398 3.72299
1 -4.31693 5.34942 3.8014
1 -2.00611 4.24677 3.48726
1 0.234328 5.52145 2.32543
1 0.799051 5.48337 3.55783
1 3.31729 4.9392 3.17637
1 2.12275 5.15282 3.6109
1 4.33293 5.01563 2.38091
1 2.94735 6.48389 1.80272
1 3.47124 7.19462 2.82659
1 4.73352 7.71322 2.75099
1 5.97295 7.95848 2.2489
1 7.04063 7.36206 2.84698
1 7.69769 6.48686 3.50933
1 -4.28315 -2.73958 4.36919
1 -3.76594 -2.40394 5.48869
1 -0.432345 -2.8445 5.48194
1 0.523884 -3.73769 5.75953
1 5.10275 -3.98288 4.7193
1 5.4671 -3.03873 3.92999
1 -0.422702 -1.98381 4.43389
1 2.91228 -0.989014 5.74036
1 5.71924 -0.508632 5.10711
1 -2.83062 0.303531 4.50672
1 -3.37843 1.27656 5.28941
1 -0.345448 1.45399 4.56731
1 0.404205 0.451355 4.25779
1 3.14022 -0.203101 4.65443
1 2.67938 1.1778 4.69035
1 6.38157 -0.0688068 4.10887
1 -2.86931 2.53313 5.22986
1 -0.692818 2.66688 5.09438
1 -1.21135 3.66094 4.31386
1 2.91609 1.84161 5.85556
1 4.87487 2.5524 4.54119
1 5.07729 3.05756 5.70558
1 0.018973 5.75045 4.64798
1 2.54371 5.64287 5.60902
1 -2.52278 7.87636 3.90286
1 -3.35036 7.92314 4.90117
1 -4.44575 7.7429 5.57478
1 -0.999527 6.17686 5.32303
1 -2.197 6.19754 5.81548
1 2.68309 7.58779 4.00245
1 2.63409 6.96677 5.28238
1 4.99452 7.34643 5.18635
1 -4.31465 -2.64827 7.95339
1 -3.70067 -3.69982 7.49219
1 -1.57915 -2.68095 6.17522
1 3.67765 -2.82058 7.41363
1 3.21017 -4.18402 7.50412
1 5.72027 -2.52068 6.26438
1 6.26538 -3.63042 6.60094
1 -2.93124 -1.19424 7.33546
1 -2.78651 -2.12008 6.37686
1 3.05501 -1.96899 6.55673
1 5.4719 -1.18394 6.25619
1 5.00069 -0.521668 7.35086
1 7.43253 -0.317569 7.92359
1 -4.41889 1.02872 6.13302
1 0.157129 0.671438 8.04007
1 7.41483 0.930526 7.31554
1 -0.430633 2.91277 6.41006
1 0.376261 3.18107 7.5523
1 1.50267 3.7153 6.85254
1 3.40925 2.06786 7.01988
1 4.30114 2.18921 7.93656
1 6.75604 2.04905 7.82475
1 6.22115 3.33578 7.85612
1 -3.97472 3.97734 7.68861
1 -3.83422 5.19349 7.23335
1 2.43796 4.69413 6.56421
1 2.87962 5.02532 7.94027
1 5.58091 3.89733 6.65235
1 5.49672 5.24896 6.49877
1 -3.3683 7.5671 7.36874
1 -3.19168 6.32995 6.76169
1 -0.494146 6.41224 7.85317
1 0.772396 6.50405 7.96346
1 2.71144 7.79414 6.36755
1 5.10413 6.3755 6.0202
1 7.17109 7.86878 6.60752
1 7.15045 7.02934 7.69997
ITEM: TIMESTEP
1470
ITEM: NUMBER OF ATOMS
216
ITEM: BOX BOUNDS pp pp pp
-4.4797515445652687e+00 8.0417486793876840e+00
-4.4797515445652696e+00 8.0404966545652385e+00
-4.4797515445652731e+00 8.0404966545677716e+00
ITEM: ATOMS type x y z
1 -3.66033 -4.3862 -2.74099
1 -0.562442 -2.82208 -3.66827
1 -0.592527 -4.04148 -3.28286
1 4.76053 -2.45652 -4.3891
1 7.78016 -3.71356 -2.55313
1 -0.867422 -1.50651 -3.57754
1 -1.78378 -1.16885 -2.61619
1 1.38497 -2.08541 -2.74269
1 -0.277376 -0.520911 -4.2947
1 2.38358 -1.43679 -3.20648
1 3.39589 -0.521205 -3.1406
1 4.31162 -0.307421 -4.10237
1 5.96398 -2.09598 -4.16685
1 7.22858 -1.67908 -4.44451
1 -2.65701 -0.182498 -4.47187
1 -1.9497 0.669592 -3.85179
1 -1.71239 1.7192 -3.18331
1 7.74757 0.942824 -2.68195
1 -4.36217 2.09418 -3.13377
1 -3.93367 2.97936 -3.99145
1 -1.99652 2.81971 -2.62161
1 0.296632 2.08665 -2.69521
1 0.382677 1.94519 -4.05856
1 3.35706 3.46232 -2.66632
1 5.00239 1.88758 -3.55051
1 5.76733 2.06311 -2.53378
1 -2.69873 5.80663 -3.63007
1 -0.140363 5.04895 -3.06214
1 -0.0839786 4.04541 -3.88388
1 3.41064 4.22679 -3.68014
1 5.24475 5.06603 -3.09603
1 7.3624 4.38552 -2.70847
1 6.26237 4.24395 -3.49067
1 -2.50538 7.62163 -2.49729
1 -1.663 6.00723 -4.35559
1 -1.17066 7.38223 -2.70882
1 -0.553228 6.17881 -2.58109
1 3.29648 7.64721 -3.84891
1 3.82587 6.94742 -2.90891
1 1.95618 6.04738 -4.42421
1 7.11788 6.67367 -3.57567
1 -1.33616 -3.67981 -0.709044
1 -0.259646 -3.18835 -1.19458
1 0.487981 -2.42294 -1.89422
1 3.02226 -4.07703 -1.02271
1 4.15938 -3.64757 -1.44326
1 5.30724 -3.67121 -2.02381
1 6.56749 -3.47244 -2.19345
1 7.66616 -4.30238 -0.540622
1 -3.01198 -1.34054 -0.417774
1 -2.59574 -1.32444 -1.63272
1 6.80698 -2.09586 -0.517241
1 7.03273 -1.13163 -1.36315
1 -1.1203 1.48438 -0.683249
1 3.30894 0.0858507 -1.90893
1 2.78756 0.188654 -0.654539
1 7.48948 -0.00100681 -1.82112
1 -3.88496 2.72427 -0.362857
1 -2.80326 3.74594 -2.31389
1 -0.245024 1.88985 -1.54242
1 1.84184 2.93182 -0.785355
1 2.7714 2.97163 -1.65105
1 5.30413 3.21369 -0.571608
1 6.22861 2.61649 -1.37421
1 7.55958 2.58355 -1.06264
1 -3.9467 4.28821 -2.3493
1 -3.4942 6.33278 -0.555765
1 4.59348 5.98467 -2.32127
1 4.7341 5.96279 -0.953848
1 7.43254 6.65355 -2.3202
1 8.02435 7.04939 -1.14875
1 -3.23168 -3.5769 0.939292
1 -2.28864 -3.86741 0.124489
1 1.12938 -4.15365 0.649431
1 0.235099 -3.45985 1.406
1 2.08197 -4.35556 -0.190486
1 3.8725 -3.73543 1.16337
1 6.86019 -3.35748 0.0267465
1 6.20448 -3.76818 1.15852
1 -3.78826 -1.58493 0.575647
1 0.952574 -1.38153 0.319007
1 0.242575 -2.00507 1.28593
1 1.95462 -0.818268 -0.249382
1 7.72833 -1.46045 1.36468
1 -3.41206 0.74262 0.146439
1 -2.18004 0.893913 -0.228135
1 3.035 1.18652 0.223017
1 5.5984 1.64866 1.3275
1 7.99874 0.98439 0.772764
1 6.86153 1.54936 1.04184
1 -3.08839 3.09064 0.690125
1 -1.76274 2.70215 0.90238
1 -0.621349 2.50996 1.53404
1 0.836375 3.37992 -0.148056
1 0.681655 2.42781 1.71727
1 3.12629 1.78016 1.44158
1 4.17249 3.70727 -0.218822
1 -3.70063 4.0597 1.62015
1 -1.88317 5.37543 1.23385
1 -0.472589 5.08946 1.26359
1 0.0464389 4.24782 0.349194
1 3.33534 4.56732 0.232612
1 2.89723 5.53988 0.940715
1 5.17819 5.53875 1.43212
1 6.50275 5.18589 1.46312
1 7.54575 4.46393 1.69162
1 -2.55388 6.05533 0.281163
1 4.231 7.69693 0.562972
1 4.70626 6.42438 0.345042
1 -3.9054 -3.57224 2.02761
1 -4.33152 -3.16011 3.16203
1 -0.647835 -4.04514 2.28213
1 -1.73822 -4.21165 2.96451
1 3.13745 -2.93514 1.86041
1 2.34712 -2.54642 2.92823
1 2.24711 -3.66117 3.71796
1 -0.449118 -1.34898 2.24497
1 -0.954046 -1.17233 3.48455
1 1.00369 -0.412513 3.51163
1 1.85413 -1.31883 3.17184
1 3.80587 -0.649527 3.56391
1 4.49833 -0.598975 2.48988
1 6.2525 -2.30892 3.22491
1 6.79644 -1.80976 2.17529
1 -1.94757 -0.301193 3.79104
1 2.09156 1.72942 3.5906
1 7.87903 1.70932 3.18062
1 7.17877 0.679878 3.45346
1 -4.18137 2.8924 3.29832
1 1.89694 2.01743 2.25793
1 4.46488 2.00359 2.03054
1 4.56202 2.50515 3.29521
1 -2.53093 4.60954 2.3092
1 -4.08727 4.094 3.72303
1 -4.31693 5.34945 3.8014
1 -2.00615 4.24678 3.48729
1 0.234327 5.52147 2.32545
1 0.799059 5.4834 3.55785
1 3.3173 4.93924 3.17636
1 2.12276 5.15284 3.61091
1 4.33297 5.01564 2.38092
1 2.94736 6.4839 1.80271
1 3.47126 7.19465 2.82657
1 4.73349 7.71333 2.75088
1 5.97297 7.9585 2.24885
1 7.04063 7.36208 2.84697
1 7.69766 6.48688 3.50934
1 -4.28319 -2.73965 4.3692
1 -3.76596 -2.40404 5.48871
1 -0.432327 -2.84448 5.48197
1 0.523924 -3.73763 5.75958
1 5.10283 -3.98293 4.71931
1 5.46715 -3.0388 3.92997
1 -0.422694 -1.98379 4.43392
1 2.91224 -0.989021 5.74038
1 5.71922 -0.508633 5.10715
1 -2.83059 0.30355 4.50675
1 -3.37841 1.2766 5.28941
1 -0.345436 1.45403 4.5672
1 0.404216 0.451369 4.25773
1 3.1402 -0.203111 4.65445
1 2.67937 1.17779 4.69036
1 6.38154 -0.0687878 4.10889
1 -2.86929 2.53316 5.22984
1 -0.692842 2.66686 5.09435
1 -1.21142 3.66096 4.31392
1 2.91609 1.84163 5.85555
1 4.8749 2.55238 4.54119
1 5.07731 3.05754 5.70558
1 0.0189654 5.75047 4.64799
1 2.54368 5.64287 5.60904
1 -2.52281 7.87641 3.90287
1 -3.35039 7.92317 4.90117
1 -4.44576 7.7429 5.5748
1 -0.99955 6.17685 5.32304
1 -2.19703 6.19751 5.81549
1 2.6831 7.58778 4.00244
1 2.63409 6.96677 5.28238
1 4.99459 7.34638 5.18636
1 -4.3147 -2.64829 7.95343
1 -3.70071 -3.69981 7.4922
1 -1.57916 -2.68097 6.17523
1 3.67764 -2.82057 7.41363
1 3.21017 -4.18402 7.50412
1 5.72019 -2.52071 6.2644
1 6.26532 -3.63046 6.60095
1 -2.93128 -1.19428 7.33544
1 -2.78653 -2.12013 6.37685
1 3.05497 -1.96896 6.55678
1 5.4719 -1.18395 6.25622
1 5.00071 -0.521677 7.3509